default_name
 95218
  94.3020377  57.8146362  80.3234353  94.8317545  57.3605086  81.0536877
  93.6277830  58.5289964  80.5583178  95.2174857  58.4758702  79.3715962
  96.2450041  58.1734067  79.5736413  95.1326977  59.5584497  79.4661076
  94.7044712  57.9612793  78.0066701  95.5005638  57.9980683  77.2630430
  93.8618924  58.5631640  77.6662338  94.2658120  56.5113992  78.2901870
  95.1051344  55.8190719  78.3559143  93.5352243  56.1292264  77.5772455
  93.6176571  56.6737729  79.6643183  92.5703700  56.9406383  79.5226479
  93.7090116  55.3879329  80.4970150  94.5615206  54.5297348  80.2596764
  92.8023262  55.2654008  81.4648070  92.1466186  56.0203841  81.6067472
  92.7456877  54.1160469  82.3724411  93.7133867  53.9740686  82.8535856
  91.6867056  54.3507620  83.4597577  90.7473090  54.5464066  82.9426924
  91.6048788  53.4199922  84.0210705  91.9850087  55.4898741  84.4123899
  93.0023487  55.3786228  84.7875475  91.8984582  56.4328680  83.8725997
  91.0085291  55.4833846  85.5830412  91.0282039  54.4952509  86.0427190
  91.3357959  56.2277838  86.3088964  89.6345167  55.7882741  85.1863318
  89.0017806  55.0086758  85.0769206  89.1844294  57.0123632  84.9255552
  89.9991356  58.0569626  85.0089514  90.9648042  57.9206591  85.2716402
  89.6496320  58.9833001  84.8093373  87.9072813  57.1997674  84.6209138
  87.2781256  56.4103648  84.5876486  87.5697416  58.1310185  84.4235890
  92.4552599  52.7738239  81.7052243  91.7428482  52.7092045  80.7011561
  92.9684179  51.6747932  82.2909694  93.8372946  51.6692893  83.4823084
  93.2314601  51.7264310  84.3866312  94.5211926  52.5174114  83.4495752
  94.5486672  50.3553866  83.3474974  94.9400037  50.0147111  84.3060875
  95.3621434  50.4165099  82.6245716  93.4602479  49.4574216  82.8517149
  92.7694166  49.2712499  83.6740234  93.7782993  48.5071515  82.4228446
  92.7785738  50.3081304  81.7841851  93.2398756  50.2320565  80.7995472
  91.2953641  49.9665154  81.6778974  90.4703020  50.5462842  82.3835422
  90.9710168  49.0002194  80.8242365  91.6826751  48.6092064  80.2236113
  89.5809526  48.6014545  80.6030801  88.9792441  49.4745901  80.3507306
  89.4956748  47.5965687  79.4470013  90.1975819  46.7826074  79.6283646
  88.4814542  47.1991513  79.4080653  89.8219506  48.2294727  78.1020114
  89.3603079  49.3311922  77.7929629  90.6268735  47.5383097  77.2992493
  90.8756910  47.9124740  76.3947104  90.9854211  46.6426205  77.5980555
  88.7856225  48.0991953  81.8137719  87.5643428  48.2679283  81.8602702
  89.4688633  47.5002306  82.7878542  90.4619417  47.3436121  82.6910795
  88.7972513  46.9876330  83.9881571  87.9040401  46.4325955  83.7014408
  89.7273168  46.0502068  84.7692330  90.1275472  45.3313952  84.0542331
  90.5393859  46.6624775  85.1613662  89.0488132  45.2989412  85.9248579
  88.8878814  46.0097975  86.7353424  88.0862688  44.9388470  85.5616229
  89.8742585  44.1168282  86.4397159  90.8491457  44.3396163  87.1924372
  89.5418216  42.9627673  86.0910510  88.3120510  48.1329463  84.8810406
  87.2515954  48.0395867  85.5087816  89.0845359  49.2178552  84.9079078
  89.9543362  49.2156418  84.3945445  88.7512570  50.3972600  85.6984700
  88.4467652  50.0973881  86.7011967  89.9686041  51.3245025  85.8124064
  90.2977843  51.5420286  84.7963247  89.6240481  52.2434221  86.2867143
  91.1386753  50.7431466  86.6149340  90.7554494  50.3944497  87.5739174
  91.5200380  49.8948793  86.0465114  92.2690653  51.7474162  86.8523179
  91.9847783  52.8960577  87.2616316  93.4459449  51.3795221  86.6452567
  87.5665736  51.1698899  85.1104715  86.8413704  51.8544286  85.8375045
  87.3607962  51.0420442  83.8003588  88.0009051  50.4935031  83.2440653
  86.2719981  51.7415823  83.1172994  85.9352822  52.5860690  83.7186011
  86.7549820  52.2668954  81.7635469  87.0247809  51.4415506  81.1046739
  85.9834878  52.8729854  81.2886241  88.2224795  53.3200482  81.8754084
  88.3214087  53.5596541  80.5709160  85.0262705  50.8814228  82.9315827
  83.9157168  51.3136546  83.2418843  79.4905039  56.4513776  84.1181580
  79.0729400  56.7469155  84.9890180  79.0112893  57.0589942  82.8788221
  78.9595445  56.3036881  82.0946447  77.6127867  57.6576418  83.0758310
  77.6199710  58.1712186  84.0372292  77.4633179  58.3844174  82.2773597
  76.4817718  56.6400533  83.0532311  76.6636567  55.9322547  82.2445038
  76.4699036  56.1085097  84.0047681  75.1351969  57.3244898  82.8364807
  74.8610220  57.8520463  83.7500513  75.2350088  58.0400622  82.0203353
  74.0532757  56.3105069  82.4923380  74.4226743  55.6735095  81.6886717
  73.8581534  55.7031300  83.3761478  72.7946098  56.9743051  82.0596174
  72.9751050  57.5368248  81.2404149  72.1021241  56.2725553  81.8402754
  72.4519209  57.5642786  82.8043286  79.9535371  58.1414185  82.3651559
  80.3731333  58.1205774  81.2047053  80.2593973  59.0990353  83.2340779
  79.8379437  59.0930895  84.1519237  81.1448180  60.1997700  82.8891643
  80.9818803  60.5038310  81.8551926  80.8618406  61.3924690  83.7986761
  79.9273772  61.2470746  84.3406520  81.6794333  61.5092794  84.5100111
  80.7368582  62.6981349  83.0701913  79.6097983  63.4969746  83.2483068
  78.8168189  63.1548342  83.9133056  79.4876230  64.7225819  82.5877760
  78.6011390  65.3391266  82.7365025  80.5047181  65.1565265  81.7356988
  80.4169375  66.1109776  81.2166441  81.6393742  64.3612997  81.5494443
  82.4377055  64.6927913  80.8854558  81.7483688  63.1395993  82.2166087
  82.6319332  62.5175136  82.0736989  82.6213739  59.7901721  82.9882515
  83.2058715  59.7530370  84.0820972  83.1990207  59.4517915  81.8354619
  82.6408397  59.4812189  80.9942322  84.6022514  59.0543175  81.7230747
  85.0892850  59.1354171  82.6948362  84.7084484  57.6012887  81.2410814
  84.2312994  57.6337281  80.2616042  85.7731329  57.4018334  81.1195720
  84.0748476  56.4911703  82.0796647  83.0440394  56.7583681  82.3123462
  84.0963542  55.1856092  81.3053090  85.1269307  54.9175023  81.0726511
  83.6436415  54.3978911  81.9075151  83.5339546  55.3026948  80.3789732
  84.8167975  56.3452378  83.3990874  84.7656251  57.2837657  83.9510350
  84.3576010  55.5519397  83.9889330  85.8597189  56.0952622  83.2043414
  85.2628617  59.9819673  80.6978509  84.9251769  61.1655245  80.6068001
  86.2090401  59.4409545  79.9377834  86.4737694  58.4773344  80.0842554
  86.9017051  60.1981677  78.9028195  86.6176046  61.2490574  78.9577459
  88.4194899  60.0901892  79.0941670  88.7641759  60.9923094  79.5996072
  88.6228714  59.2224921  79.7217320  89.1025524  59.9504098  77.8588483
  90.0466281  59.8862008  78.0207066  86.4943464  59.6373661  77.5448518
  86.2011541  58.4481613  77.4270673  86.4606774  60.4976519  76.5306478
  86.6568555  61.4761229  76.6862367  86.0953145  60.0705937  75.1827812
  85.0792570  59.6760051  75.1879011  86.1603274  61.2477288  74.1955288
  87.0708329  61.8034013  74.4198209  86.2221278  60.8424333  73.1855703
  84.9546739  62.1833275  74.2961263  84.0640343  61.9571020  75.1447705
  84.8917529  63.1489985  73.5063399  87.0130199  58.9464135  74.7141227
  86.5436071  57.8805074  74.3095529  88.3210090  59.1776013  74.8211493
  88.6373648  60.0777675  75.1523880  89.3248538  58.1988055  74.4104336
  89.2023006  58.0147859  73.3430927  90.7243292  58.7506293  74.6517986
  90.8653718  58.9314304  75.7174054  91.4645645  58.0295809  74.3050403
  90.8456883  59.6862240  74.1058740  89.1496151  56.8619806  75.1284585
  89.4843380  55.8088196  74.5825296  88.6080622  56.9174628  76.3444121
  88.3932012  57.8180778  76.7479301  88.3786245  55.7234592  77.1538840
  89.2191786  55.0379459  77.0459967  88.2365183  56.0957410  78.6359471
  87.4131232  56.8058777  78.7122723  87.9797889  55.1833279  79.1741779
  89.4997017  56.7110720  79.2477662  90.3243076  56.0353953  79.0206387
  89.6736673  57.6716623  78.7628936  89.4090286  56.9127337  80.7568921
  88.3716082  57.4099041  81.2478244  90.3896955  56.5810124  81.4524216
  87.1573822  54.9392615  76.6888265  87.1388673  53.7103428  76.7586617
  86.1321760  55.6536797  76.2327994  86.1834901  56.6621064  76.2095207
  84.9181718  55.0122796  75.7447535  84.5731237  54.2802972  76.4749882
  83.8048799  56.0371694  75.4824330  84.1492890  56.7608218  74.7436434
  82.5658183  55.3338665  74.9614603  82.2205259  54.6103342  75.6999552
  81.7809951  56.0676738  74.7779387  82.8043780  54.8175350  74.0316269
  83.4766843  56.7943345  76.7695048  83.0351584  56.0780461  77.4623876
  84.4183616  57.1610899  77.1779577  82.5262224  57.9562229  76.5715487
  81.5840882  57.5901627  76.1635256  82.3420855  58.4429240  77.5293142
  82.9672909  58.6732057  75.8790935  85.2639329  54.3136829  74.4419592
  84.8884755  53.1654711  74.2243096  86.0184089  55.0107300  73.5985610
  86.2852361  55.9530290  73.8454923  86.4467883  54.4875307  72.3094398
  85.5965536  54.2205035  71.6818279  87.3282252  55.5187603  71.5703292
  88.1279012  55.8425930  72.2364757  87.9315437  54.9051740  70.3146670
  87.1324215  54.5815001  69.6477790  88.5489927  55.6467904  69.8078508
  88.5458410  54.0472426  70.5879646  86.5007156  56.7670032  71.2420096
  85.7277980  56.4597511  70.5375274  86.0350554  57.0933358  72.1719382
  87.3005850  57.9129970  70.6473910  87.7661969  57.5875391  69.7171316
  86.6369760  58.7539618  70.4461436  88.0734562  58.2211223  71.3515420
  87.2170913  53.1832313  72.4862567  86.9046572  52.1829645  71.8411913
  88.2022234  53.1977907  73.3824244  88.4073276  54.0555663  73.8746160
  89.0235142  52.0233019  73.6658032  89.5024908  51.6767985  72.7500435
  90.1086144  52.3660424  74.6845988  90.7204301  53.1571932  74.2511693
  89.6072889  52.7423839  75.5763050  90.9977106  51.1848735  75.0617155
  90.3711819  50.3099886  75.2353214  91.6788885  50.9849570  74.2345927
  91.8149680  51.4497067  76.3082931  93.0136226  51.7191813  76.2329628
  91.1664863  51.3796116  77.4669968  91.6624363  51.5473185  78.3307151
  90.1809395  51.1589856  77.4780873  88.1705923  50.8773110  74.2041509
  88.4759384  49.7007617  73.9818550  87.1132187  51.2304045  74.9302336
  86.9292264  52.2077166  75.1066062  86.2043940  50.2430237  75.4977481
  86.7692264  49.4705990  76.0196903  85.2593946  50.9172342  76.4963193
  85.7775774  51.8461420  76.7344709  84.3443663  51.1423940  75.9484814
  84.9089478  50.1798314  77.7955845  84.1748074  50.7663423  78.3479826
  84.3353224  48.8068050  77.4929652  85.0691168  48.2195078  76.9409447
  84.0931576  48.2997243  78.4269493  83.4313491  48.9142004  76.8934663
  86.1421082  50.0555950  78.6765946  86.5167627  51.0497287  78.9203808
  85.8813224  49.5307074  79.5956077  86.9134398  49.4971689  78.1462111
  85.4067003  49.6127693  74.3560209  85.2326945  48.3932872  74.3024926
  84.9450478  50.4612027  73.4374183  85.1210878  51.4488357  73.5544238
  84.1773905  50.0276810  72.2722165  83.2743334  49.4964971  72.5729336
  83.7705811  51.2359738  71.3873698  84.6554860  51.8382885  71.1817986
  83.1665107  50.7569975  70.0737997  82.2812308  50.1549544  70.2785549
  82.8872644  51.6179238  69.4664053  83.8981177  50.1548426  69.5350395
  82.7764103  52.1247265  72.1294730  83.2334034  52.4941491  73.0475070
  82.4998021  52.9682353  71.4969538  81.8849379  51.5474795  72.3747558
  84.9986164  49.0548377  71.4307713  84.5115942  47.9956206  71.0412403
  86.2490808  49.4235437  71.1686955  86.5851606  50.3177773  71.4965612
  87.1506345  48.5935452  70.3801162  86.7186884  48.4117278  69.3960105
  88.5087584  49.2930375  70.1992430  88.9212040  49.4888750  71.1890084
  89.1792422  48.6310042  69.6512800  88.4042996  50.6146538  69.4444074
  87.4799906  50.8316851  68.6584181  89.3684339  51.5001357  69.6752684
  89.3528273  52.3934380  69.2042404  90.1121777  51.2755712  70.3206494
  87.3684095  47.2208940  71.0276165  87.2806517  46.1882521  70.3538908
  87.6089513  47.2208276  72.3410398  87.7119337  48.1082283  72.8122234
  87.8676155  45.9969439  73.1017095  88.5902389  45.4628698  72.4847173
  88.5245010  46.3394253  74.4362963  87.8102181  46.8666187  75.0687258
  88.8402158  45.4217315  74.9325446  89.3928148  46.9748389  74.2619975
  86.6716057  45.0637824  73.3194713  86.6971185  43.9102757  72.8792823
  85.6381773  45.5414778  74.0091944  85.6731087  46.4642332  74.4183418
  84.4623635  44.7116305  74.2695509  84.7787889  43.6970016  74.5114237
  83.6473276  45.2646501  75.4460778  83.2717803  46.2412179  75.1404982
  82.8089366  44.5849426  75.5983876  84.4316436  45.4060969  76.7505230
  85.1188309  46.2444648  76.6364456  83.7189097  45.6267211  77.5451533
  85.2224558  44.1428323  77.1100460  85.8877192  43.9148301  76.2772563
  85.8149597  44.3592791  77.9989719  84.3185775  42.9442206  77.3812617
  83.6327631  43.2052241  78.1872618  83.7500686  42.7296296  76.4763597
  85.1073305  41.7384398  77.7705230  85.6338647  41.9369350  78.6092490
  84.4792761  40.9662942  77.9421003  85.7425827  41.4961660  77.0236247
  83.5757970  44.5590878  73.0358992  82.4447612  44.0744655  73.1288412
  84.1105752  44.9609207  71.8835617  85.0114744  45.4161631  71.9186947
  83.4177381  44.8915330  70.5957329  83.8698769  45.5941113  69.8956947
  83.5170669  43.4778614  70.0050067  83.2296053  42.7364737  70.7505330
  82.8635952  43.3916759  69.1368783  84.8948461  43.1095763  69.5429608
  85.6571851  43.9347898  68.7426615  86.8178578  43.3521969  68.4917623
  87.5651703  43.8474257  67.8717853  86.8356959  42.1796290  69.1008191
  87.5949850  41.5137643  69.0865312  85.6453013  42.0039741  69.7656192
  85.4675976  41.0904294  70.3330332  81.9627279  45.3660983  70.6555576
  81.0579940  44.7258353  70.1040407  81.7531742  46.4929972  71.3366657
  82.5387675  46.9580275  71.7687413  80.4264596  47.0855079  71.4917959
  79.6741694  46.3029040  71.5902326  80.3628164  48.0237587  72.7299497
  81.0122313  48.8825702  72.5602336  78.9268096  48.5068162  72.9569981
  78.2768397  47.6485323  73.1272576  78.8968671  49.1628362  73.8269648
  78.5835621  49.0532589  72.0785445  80.8845159  47.2966215  73.9759093
  80.1947496  46.4787259  74.1841635  81.8642624  46.8900294  73.7251519
  81.0034275  48.1811173  75.2009808  80.0239229  48.5877337  75.4526425
  81.3785620  47.5935728  76.0389336  81.6934344  48.9990390  74.9936298
  80.0816945  47.8972062  70.2450441  80.8763356  48.7277073  69.7937400
  78.9060891  47.6360585  69.6467274  77.9748045  46.5385427  69.9566534
  77.2187560  46.8731303  70.6669647  78.5160123  45.6901898  70.3755690
  77.4003415  46.2386799  68.6009437  76.4619267  45.6885859  68.6707524
  78.1012922  45.6828050  67.9782299  77.1854954  47.6227465  68.0613791
  76.3380262  48.0586274  68.5904376  77.0210908  47.7002911  66.9866431
  78.4702845  48.3547205  68.4463336  79.2556421  48.2934199  67.6929718
  78.1892183  49.8173695  68.7681607  77.6157265  50.1406267  69.8140483
  78.5791752  50.6909947  67.8473547  79.0936495  50.3599252  67.0437326
  78.3942091  52.1275644  68.0052531  79.0084736  52.3945489  68.8651935
  78.9264574  52.8601576  66.7807678  78.3158953  52.6099908  65.9131674
  78.8868514  53.9355121  66.9543888  79.9581081  52.5600476  66.5971101
  76.9609310  52.5743105  68.3058408  76.7626036  53.5022663  69.0834611
  75.9625518  51.9045437  67.7291428  76.1541307  51.2181772  67.0133929
  74.5671533  52.2998207  67.9589345  74.4798265  53.3815866  67.8576647
  73.6124805  51.6324459  66.9510602  72.5949993  51.9162948  67.2198745
  73.8750618  52.0857075  65.9951810  73.7020681  50.1240548  66.8360412
  72.9284756  49.2937322  67.6525657  72.2860902  49.7487619  68.4064811
  72.9685278  47.8996334  67.5150185  72.3601845  47.2634160  68.1578619
  73.7916133  47.3293887  66.5514058  73.8352294  45.9568770  66.4088291
  73.2594564  45.4973277  67.0243774  74.5718353  48.1358843  65.7287719
  75.2172988  47.6897499  64.9721733  74.5248672  49.5261017  65.8765712
  75.1364594  50.1630799  65.2375767  74.0361263  52.1767830  69.3939541
  72.8865064  52.5279279  69.6752944  74.8850780  51.7042978  70.3014120
  75.8133517  51.4184444  70.0244731  74.5078542  51.5644557  71.7037024
  73.4257045  51.4616862  71.7842614  75.1645091  50.3257926  72.3210927
  76.1943222  50.3054010  71.9644861  75.1574192  50.4718313  73.4012420
  74.4870854  49.0109084  71.9845116  73.4067299  49.1308102  72.0654823
  74.7448026  48.7230663  70.9652811  74.9508499  47.9291647  72.9494484
  75.9736404  47.6556578  72.6902334  74.9298508  48.3398441  73.9589042
  74.0624857  46.6914445  72.8860481  73.0278919  47.0091529  73.0155765
  74.1822160  46.2376741  71.9022513  74.4135830  45.6884870  73.9450745
  74.3022901  46.1086292  74.8567730  73.8027203  44.8880137  73.8664027
  75.3720924  45.3936418  73.8249702  74.9312218  52.7983315  72.4903926
  74.6016236  52.9318024  73.6683601  75.6516636  53.6992042  71.8248869
  75.9298472  53.4912009  70.8764947  76.1573542  54.9249638  72.4430095
  76.7371545  54.6811098  73.3332152  77.0627002  55.6788430  71.4593461
  76.4256692  55.8130236  70.5851113  77.2943735  56.6519921  71.8922530
  78.3638407  54.9828061  71.0413713  78.1313772  53.9820747  70.6772309
  79.0547999  55.7718895  69.9447520  79.2880102  56.7726525  70.3083251
  79.9767712  55.2659880  69.6581631  78.3966469  55.8446426  69.0789334
  79.2822755  54.7982549  72.2365898  78.7825396  54.1876589  72.9886111
  80.1992666  54.3027181  71.9177295  79.5251815  55.7717341  72.6625404
  75.0949020  55.8711093  73.0056895  75.4105878  56.7686245  73.7890355
  73.8423772  55.6731098  72.6095897  73.6305994  54.9429544  71.9446667
  72.7463810  56.5160743  73.0861915  73.0925388  57.5425371  73.2072210
  71.5928006  56.5041912  72.0789651  71.2118568  55.4837847  72.0371126
  70.8181939  57.1649683  72.4681414  71.9900326  56.9572763  70.6745497
  72.7095023  56.2356446  70.2876233  71.0923724  56.9417457  70.0564364
  72.6045349  58.3545741  70.6438614  72.2019792  59.2175777  71.4600565
  73.4941016  58.5866026  69.7963002  72.2552719  56.0315030  74.4444254
  71.7982829  56.8205018  75.2782072  72.3517122  54.7203964  74.6437961
  72.7014849  54.1412786  73.8938754  71.9404442  54.0720251  75.8840430
  71.3918357  54.7685936  76.5180148  71.0325707  52.8469381  75.5914315
  70.9253493  52.2600511  76.5036637  69.6509198  53.3028848  75.1127381
  69.7572978  53.8894821  74.2002213  69.0289317  52.4303977  74.9127478
  69.1818876  53.9137106  75.8841014  71.6457400  52.0182199  74.5896792
  71.0820493  51.2619259  74.4111504  73.1774682  53.6295041  76.6793447
  73.1878754  52.5675936  77.3067511  74.2069423  54.4695552  76.6680637
  74.1429707  55.3338998  76.1494931  75.4520647  54.1709796  77.3612128
  75.2562726  53.5968215  78.2668105  76.3552883  53.3382775  76.4373490
  75.6233744  52.6751994  75.9761237  76.7139253  54.0536256  75.6972433
  77.5374154  52.5093175  76.9626946  77.2326889  51.9692093  77.8590905
  77.9771700  51.5112081  75.8916098  78.2825029  52.0506303  74.9950083
  78.8158100  50.9232418  76.2645432  77.1472042  50.8470494  75.6504661
  78.7043459  53.3987535  77.3677509  78.3850440  54.0819287  78.1547817
  79.5232435  52.7799610  77.7346348  79.0415770  53.9722022  76.5043097
  76.1434131  55.4738202  77.7613476  76.8599899  55.5201690  78.7603328
  75.8919306  56.5359636  76.9991055  75.3236708  56.4295419  76.1709421
  76.4939044  57.8391952  77.2624300  77.1987666  57.7692597  78.0909090
  77.2283296  58.3638091  76.0027294  76.5244382  58.3842679  75.1707326
  77.7799099  59.7638193  76.2349506  78.4842783  59.7440710  77.0665609
  78.2902795  60.1076710  75.3352898  76.9606102  60.4434076  76.4694861
  78.3666385  57.4061962  75.6394342  79.0427689  57.3730732  76.4937475
  77.9224044  56.4221174  75.4899540  79.1378191  57.8034542  74.4023503
  79.5827609  58.7872995  74.5512634  79.9254279  57.0737129  74.2146026
  78.4623953  57.8363459  73.5474698  75.4829497  58.8723733  77.7698981
  74.3064888  58.8332103  77.4087734  75.9701127  59.7866983  78.6109070
  76.9260824  59.6646602  78.9131121  75.1777530  60.8598120  79.2243816
  74.3787867  60.4348124  79.8319401  76.0753206  61.7234174  80.1269823
  75.6352464  62.7200944  80.1596781  76.0493014  61.2824533  81.1234629
  77.5253623  61.8221732  79.6513351  78.1267274  61.2375207  80.3474977
  77.5794274  61.3732484  78.6595475  78.0586392  63.2461572  79.5929290
  77.2673318  64.2114868  79.7139095  79.2859160  63.3983589  79.4134985
  74.3608014  61.7497224  78.2725939  73.1929478  61.4587210  78.0025753
  74.9504045  62.8488964  77.8036177  75.8738948  63.1036033  78.1236013
  74.2540091  63.7621678  76.8959604  73.2130116  63.8783967  77.1974805
  74.9290679  65.1718031  76.8776295  74.8769492  65.5936848  77.8813225
  76.3882226  65.0853644  76.4375068  76.4411192  64.6639762  75.4336474
  76.8274710  66.0829401  76.4358512  76.9394470  64.4473666  77.1283113
  74.2157189  66.0424671  75.9894192  74.6350101  66.9060349  75.9826404
  74.1639221  63.1810686  75.4772663  75.0858355  62.5038966  75.0238385
  73.0387365  63.4278664  74.7999671  72.3082982  63.9534244  75.2586043
  72.7921242  62.9352597  73.4334547  72.6951237  61.8496351  73.4439063
  71.4955363  63.5388229  72.8704128  71.2786407  64.5141689  73.3060223
  71.6212912  63.6426607  71.7926821  70.2754350  62.6947017  73.0802730
  70.1690563  61.4058811  72.6028854  68.9704510  60.9290590  72.8917854
  68.6885972  59.9189721  72.5944945  68.2964217  61.8613253  73.5424881
  67.3514268  61.7785334  73.8892304  69.0897774  62.9743050  73.6759970
  68.7092907  63.8561738  74.1913983  73.9192078  63.2309528  72.4413130
  74.3440554  62.3488792  71.6902900  74.3776147  64.4809949  72.4374383
  73.9337650  65.1578307  73.0415823  75.4364010  64.9411427  71.5416663
  75.1792996  64.7000401  70.5102267  75.6133141  66.4497112  71.6593946
  75.8471970  66.6683467  72.7013142  76.4601992  66.7267632  71.0315986
  74.3994815  67.2383075  71.2413502  74.0727224  66.8635533  70.2713560
  73.6179778  67.0619696  71.9804416  74.6741760  68.7276681  71.1415311
  75.8481339  69.1476934  71.2821141  73.7024024  69.4807167  70.9174062
  76.7934591  64.2788156  71.7223574  77.6534039  64.3847651  70.8451211
  77.0018098  63.6429242  72.8706862  76.3053374  63.6476279  73.6021255
  78.2671564  62.9774540  73.1287798  79.0770061  63.5508642  72.6777327
  78.5326116  62.8544729  74.6305758  78.2457457  63.7990502  75.0927241
  77.8960802  62.0559728  75.0117915  79.9850102  62.5476393  74.9639384
  80.2532849  61.6048092  74.4872823  80.6049150  63.3478687  74.5596452
  80.2119559  62.4395849  76.4639407  79.8545899  63.3484805  76.9479834
  79.6607912  61.5821319  76.8500640  81.6276519  62.2667498  76.7797730
  82.2819126  62.8496489  76.2775071  82.0985660  61.4342328  77.7016756
  81.2707174  60.6883464  78.4238294  80.2743390  60.7535562  78.2719154
  81.6412208  60.0592294  79.1217110  83.4080889  61.3191589  77.8668960
  84.0361749  61.8632476  77.2928093  83.7722321  60.6878777  78.5661688
  78.2707178  61.6059916  72.4644604  79.3125041  61.1446385  71.9927650
  77.1031278  60.9658251  72.4202063  76.2728989  61.3734991  72.8259417
  76.9916171  59.6609050  71.7857790  77.6910147  58.9642603  72.2479783
  75.9756325  59.2818597  71.8962296  77.3167756  59.7795162  70.3071640
  77.9883881  58.9206997  69.7314099  76.8575161  60.8801216  69.7146757
  76.3389603  61.5355726  70.2817588  77.0719529  61.2009396  68.3097160
  76.8052177  60.3736938  67.6519806  76.2317024  62.4492677  67.9055304
  76.4029664  63.2408400  68.6350378  76.6285591  62.9395476  66.5248931
  76.4571309  62.1486200  65.7947241  76.0297007  63.8116599  66.2624254
  77.6842354  63.2109314  66.5246878  74.7409147  62.1312667  67.9532847
  74.4648195  61.8324959  68.9645262  74.1709492  63.0154327  67.6678210
  74.5199645  61.3182630  67.2616874  78.5478813  61.5167657  68.0890008
  79.1712843  61.0135023  67.1485060  79.0804515  62.3645839  68.9694054
  78.4768841  62.7394574  69.6872324  80.4719922  62.8006152  68.9387940
  80.6592134  63.3791419  68.0341646  80.7823483  63.6811081  70.1570835
  80.1218475  64.5478736  70.1335170  80.5885732  63.1017327  71.0597880
  82.1354194  64.1166960  70.1553665  82.2965356  64.6634606  70.9278235
  81.4009117  61.6055649  68.9274555  82.3214333  61.5455984  68.1146887
  81.1381944  60.6561390  69.8246328  80.3804428  60.7949656  70.4778089
  81.9304753  59.4415770  69.9357370  82.9820766  59.7023291  70.0550773
  81.4756182  58.5746807  71.1329045  80.4037580  58.3942458  71.0512995
  82.2236632  57.2273410  71.1434141  83.2956262  57.4069590  71.2254705
  81.8894096  56.6322145  71.9932374  82.0157890  56.6885409  70.2189780
  81.7352367  59.3194078  72.4411402  81.1261789  60.2233094  72.4305951
  81.4109974  58.6729344  73.2566404  83.1874749  59.6926448  72.6409257
  83.5123234  60.3395372  71.8260002  83.3008924  60.2185610  73.5888961
  83.7971424  58.7891616  72.6520432  81.8446740  58.6263499  68.6548572
  82.8695756  58.1828503  68.1317112  80.6253889  58.4411468  68.1455657
  79.8114074  58.7814983  68.6371898  80.4235382  57.6861785  66.9106579
  80.8667485  56.6955470  67.0122107  78.9335945  57.5259263  66.6033747
  78.4635606  57.0816889  67.4807689  78.5237723  58.5222428  66.4375462
  78.6591544  56.6570860  65.3877793  79.1926151  57.0879711  64.5405139
  79.0493578  55.6602860  65.5932860  77.1784396  56.5632124  65.0589854
  76.7647810  57.5707012  65.0148068  77.0650354  56.0815353  64.0877872
  76.4346851  55.7960541  66.0504527  76.5484799  54.7925759  66.0369744
  75.6129445  56.3290989  66.9488015  75.4172775  57.6398018  66.9819881
  75.8952671  58.2355552  66.3211524  74.7911144  58.0366230  67.6679563
  74.9988920  55.5492696  67.8282740  75.1581616  54.5520375  67.8121064
  74.3747857  55.9561726  68.5101977  81.1494865  58.3668451  65.7445078
  81.7152493  57.6930578  64.8794597  81.1371950  59.6998459  65.7309479
  80.6406033  60.2104476  66.4470357  81.8253792  60.4595597  64.6892260
  81.4680416  60.1447637  63.7087606  81.5631077  61.9511638  64.8468296
  81.7554585  62.1984287  65.8908413  82.2831753  62.4685174  64.2128360
  80.1720718  62.3819822  64.4787052  80.0253298  62.2345831  63.4087327
  79.4539369  61.7753138  65.0303733  79.9660859  63.8385889  64.8186549
  78.9775551  64.1414199  64.4734023  80.0242944  63.9563325  65.9007120
  80.9643445  64.7064332  64.1991057  81.8899258  64.6955464  64.6031848
  80.7445811  65.4762401  63.1363069  79.5532855  65.5013703  62.5415664
  78.8016917  64.9290867  62.8989155  79.4068612  66.0925955  61.7358914
  81.7189024  66.2501413  62.6843158  82.6162949  66.2496438  63.1477665
  81.5603598  66.8375067  61.8781118  83.3236982  60.2048264  64.7796918
  84.0110864  60.0993634  63.7655103  83.8258244  60.1192775  66.0070143
  83.2260151  60.2697300  66.8055707  85.2368385  59.8530448  66.2443358
  85.8468889  60.4806933  65.5947244  85.5978824  60.1585136  67.6983455
  84.8548830  59.6650110  68.3248487  86.5784584  59.7207139  67.8851672
  85.6341701  61.6373795  68.0279493  86.3275540  62.1220967  67.3406583
  84.6409349  62.0695027  67.9060667  86.0997150  61.8900117  69.4401756
  87.3018201  61.9095547  69.7157759  85.1513734  62.0637568  70.3525542
  85.4059669  62.2363809  71.3145752  84.1795619  62.0225357  70.0805531
  85.5682242  58.3996167  65.9174164  86.6439575  58.1025234  65.3969836
  84.6428040  57.5003979  66.2435577  83.7960233  57.8099632  66.6987842
  84.8040935  56.0759332  65.9788751  85.7087646  55.7003352  66.4569918
  83.6041823  55.3202554  66.5436805  83.0300428  56.1041566  67.0376058
  83.0487404  54.9525872  65.6808918  83.8435015  54.1718086  67.5217716
  84.1287914  53.2857825  66.9546136  84.9408456  54.5127897  68.5122653
  84.6560498  55.3985034  69.0801574  85.0877543  53.6758308  69.1949207
  85.8682845  54.7093756  67.9743885  82.5411377  53.8817678  68.2397950
  81.7793082  53.6012263  67.5124630  82.6886472  53.0635076  68.9446301
  82.2172344  54.7716242  68.7795553  84.9045540  55.8314677  64.4687296
  85.8006754  55.1261859  63.9944785  84.0120990  56.4796571  63.7234951
  83.3260033  57.0572852  64.1879495  83.9465425  56.3603179  62.2685111
  84.0128417  55.3147834  61.9675771  82.6097361  56.9262676  61.7803671
  81.9938487  56.8550264  62.6768640  82.7640848  57.9755145  61.5286578
  81.9024122  56.2208573  60.6174999  80.8790186  56.5900286  60.5505747
  82.6215333  56.4893898  59.3131436  83.6449262  56.1200532  59.3791451
  82.1036402  55.9799078  58.5005456  82.6346815  57.5618817  59.1190075
  81.7888874  54.7074560  60.9060924  81.2153506  54.5533612  61.8200999
  81.2850380  54.2152182  60.0742636  82.7860597  54.2844582  61.0278262
  85.1013078  57.0775624  61.5675964  85.5709039  56.6404217  60.5156061
  85.5499800  58.1738464  62.1729521  85.0724360  58.4843017  63.0070196
  86.6376182  58.9977734  61.6501323  86.3633240  59.4285549  60.6871737
  86.9139736  60.1359858  62.6338528  85.9781991  60.6641967  62.8166600
  87.2735649  59.7015261  63.5666117  87.8767264  61.0426735  62.1347882
  88.0228738  61.7403053  62.7778673  87.9232545  58.2116978  61.3520643
  88.6964851  58.5817707  60.4658034  88.1304064  57.1188451  62.0835047
  87.4750492  56.8936763  62.8182872  89.3030520  56.2599173  61.9124158
  90.1948526  56.8725018  61.7800103  89.4983925  55.3689035  63.1498754
  88.5311067  54.9152521  63.3658795  90.2088043  54.5917208  62.8680916
  90.0051532  56.0941213  64.3864654  91.0816022  55.9395410  64.4603789
  89.7984613  57.1581574  64.2715401  89.3257130  55.5762128  65.6610213
  89.6553209  56.2052365  66.4879353  88.2495317  55.6865823  65.5277855
  89.6533778  54.1153515  65.9704045  89.3956651  53.5091644  65.1019450
  90.7223471  54.0322063  66.1665945  88.8902498  53.6310443  67.1592848
  87.8996922  53.7076018  66.9775315  89.1257592  52.6656702  67.3400833
  89.1292290  54.1923467  67.9642243  89.2234044  55.3838067  60.6573104
  90.2295355  55.1885236  59.9729899  88.0313557  54.8512245  60.3743172
  87.2615226  55.0293787  61.0033779  87.7941988  53.9870661  59.2112008
  88.5117337  53.1665542  59.2129888  86.3762813  53.3989672  59.2456492
  85.7379901  54.1819812  59.6550057  86.1038126  53.2151209  58.2063892
  86.1914879  52.1199354  60.0526554  85.2829936  51.6287498  59.7041217
  87.0487494  51.4739599  59.8631287  86.0814088  52.3882516  61.5362749
  87.0760781  52.5977018  61.9298007  85.4404511  53.2565008  61.6892981
  85.4902097  51.1860664  62.2638457  86.0637294  50.3024145  61.9839618
  85.5857251  51.3559183  63.3362851  84.0489047  50.9749898  61.9188244
  83.9602264  50.8171552  60.9251826  83.6968843  50.1718913  62.4200375
  83.5172229  51.7935196  62.1784828  87.9754549  54.7020450  57.8755390
  88.1425110  54.0544631  56.8388481  87.9208425  56.0318350  57.9092721
  87.7199557  56.4867373  58.7883669  88.0517690  56.8600946  56.7163738
  87.5082352  56.4129203  55.8840845  87.4701793  58.2449380  56.9911485
  87.6563240  58.3496426  58.0600200  88.0728065  58.9707404  56.4451162
  85.9863808  58.4951605  56.7047139  85.8995457  58.9162747  55.7031035
  85.1666431  57.2213191  56.7902017  85.2526170  56.7998409  57.7917322
  84.1211260  57.4466467  56.5799110  85.5364334  56.5010134  56.0604652
  85.4666561  59.5587386  57.6541695  86.0275505  60.4819377  57.5085659
  84.4106715  59.7403952  57.4541726  85.5879022  59.2189284  58.6827254
  89.4627356  57.0060570  56.1651313  90.4423521  57.0290623  56.9127082
  89.5569921  57.0904957  54.8402872  88.7218184  57.0302357  54.2755279
  90.8378594  57.2732505  54.1642949  91.5826389  56.6062588  54.5984894
  90.7075924  56.9559345  52.6718580  91.6854335  57.0749989  52.2052214
  90.3776901  55.9226326  52.5643786  89.7731119  57.8193070  52.0394380
  89.7125283  57.5975586  51.1073666  91.2357074  58.7344447  54.3577230
  92.3799080  59.1189624  54.1124696  90.2562189  59.5402713  54.7646416
  89.3435398  59.1347615  54.9152340  90.4354212  60.9634606  55.0392589
  91.4980585  61.2061159  55.0436786  89.7459354  61.8097876  53.9708480
  88.6839446  61.5666623  54.0049786  89.8880871  62.8543546  54.2479271
  90.2716038  61.5835386  52.5646225  91.1530682  62.2120905  52.4379572
  90.5581046  60.5353492  52.4790931  89.2474530  61.9204394  51.4843290
  88.4996017  62.9154757  51.6443106  89.1927758  61.1797083  50.4740683
  89.7652937  61.1991256  56.3867143  88.5584111  61.4313954  56.4560553
  90.5333651  61.0830675  57.4814612  91.9485489  60.6711328  57.4916383
  92.5894757  61.5302731  57.2936709  92.1210525  59.9074010  56.7333143
  92.1120370  60.1364355  58.8953807  93.1569346  60.1264725  59.2055236
  91.6937001  59.1351033  58.9975047  91.3172167  61.1306227  59.6837110
  91.8136468  62.0971459  59.7702501  91.0717074  60.7584963  60.6783701
  90.0442563  61.2734612  58.8519545  89.3484123  60.4583609  59.0507281
  89.3491924  62.6121521  59.1138622  88.4630259  62.6961166  59.9668886
  89.7193313  63.6440172  58.3615241  90.4791327  63.5546442  57.7021200
  89.1158669  64.9615596  58.5486570  88.7438208  65.0590804  59.5685446
  90.1560468  66.0592058  58.2997541  89.6826567  67.0286228  58.4554198
  90.9706744  65.9345100  59.0131494  90.6696370  65.9907969  56.9794741
  91.3171813  66.6878709  56.8515127  87.8590697  65.2367653  57.7143216
  87.3944962  66.3747359  57.6550215  87.2984163  64.1992739  57.0966515
  87.7284790  63.2877814  57.1624301  86.0977490  64.3436537  56.2654756
  86.3151064  64.9812105  55.4085181  85.6368264  62.9786786  55.7543804
  85.4022340  62.3474796  56.6114997  84.7403084  63.1181217  55.1503016
  86.6370412  62.3602531  54.9751202  86.3216323  61.5071246  54.6680554
  84.9198153  65.0245279  56.9717075  84.3520535  65.9965342  56.4621741
  84.5818861  64.5150562  58.1534624  85.0727464  63.6925256  58.4737730
  83.4683335  65.0133443  58.9563140  82.5643830  65.0786214  58.3507469
  83.2090918  64.0518449  60.1210639  84.2188003  63.7589852  60.4088503
  82.7556259  64.6299625  60.9262029  82.3692103  62.7973359  59.8577173
  81.3148061  63.0634515  59.9319816  82.6504375  62.2245170  58.4800008
  83.7046250  61.9577170  58.4051321  82.0392359  61.3356155  58.3238359
  82.4096313  62.9684101  57.7205694  82.6320876  61.7665151  60.9453945
  82.3626320  62.1843051  61.9154175  82.0332773  60.8758603  60.7549697
  83.6889556  61.4998157  60.9461531  83.5621942  66.4394565  59.4963541
  82.5455441  67.0130960  59.8677453  84.7647370  67.0075874  59.5254040
  85.5678972  66.4544787  59.2625279  84.9916073  68.3567252  60.0464339
  84.9951604  68.3348090  61.1362074  86.3438594  68.9036678  59.5617464
  87.1228196  68.2867856  60.0098275  86.3700032  68.7905245  58.4779498
  86.5820734  70.3704780  59.9270215  85.9526307  70.9737279  59.2728103
  86.2872063  70.5317370  60.9639164  88.0258136  70.8155113  59.7577012
  88.5539578  71.5616918  60.5892265  88.6663833  70.3825000  58.6720066
  89.6272795  70.6513553  58.5154919  88.1879496  69.7875098  58.0108037
  83.8914107  69.3863630  59.7771875  83.5588825  70.1793291  60.6613157
  83.3096960  69.3467320  58.5785122  83.6707877  68.7260157  57.8682846
  82.2587363  70.2887624  58.2051377  82.2060340  71.0942773  58.9375770
  82.5500227  70.8935732  56.8356626  82.8107033  70.0612294  56.1819436
  81.6526690  71.3839848  56.4583658  83.6859431  71.8814680  56.8671066
  84.9497341  71.5350412  56.3910647  85.0978031  70.5444621  55.9610322
  86.0185288  72.4352169  56.4585296  87.0001202  72.1551371  56.0762529
  85.8203493  73.6982966  57.0084682  86.8723082  74.5848018  57.0900282
  87.6916665  74.2278775  56.7395191  84.5691867  74.0665902  57.4851160
  84.4094147  75.0558365  57.9140276  83.5095256  73.1568258  57.4115985
  82.5237774  73.4371766  57.7828183  80.8269403  69.7678783  58.2701078
  79.8902035  70.4557486  57.8574669  80.6629836  68.5582371  58.7924338
  81.4651717  68.0311599  59.1067318  79.3443107  67.9631734  58.9440616
  78.6726345  68.3407544  58.1730993  79.4390408  66.4427952  58.8078797
  80.2312083  66.3385754  58.0664568  79.8008880  66.0976376  59.7764007
  78.2292683  65.6005073  58.3847503  78.3001999  65.3484712  57.3266636
  78.2247413  64.3312261  59.2054657  78.1533590  64.5824550  60.2637130
  77.3710642  63.7164787  58.9201207  79.1465329  63.7781230  59.0252500
  76.9153116  66.3300872  58.5475142  76.9212703  67.2314518  57.9346473
  76.0977500  65.6820332  58.2317291  76.7781537  66.6035807  59.5936919
  78.8583488  68.3385001  60.3498232  79.3925349  67.8493048  61.3470444
  77.8102752  69.1772309  60.4441600  77.0276522  69.7145589  59.3196148
  76.2356750  69.0183708  59.0435816  77.6735053  69.8890828  58.4590834
  76.5015709  70.9762684  59.8973480  75.6342063  71.3299427  59.3399502
  77.2679369  71.7513222  59.9060809  76.1297708  70.5766948  61.2913837
  75.1709461  70.0588841  61.3164092  76.0946708  71.4376844  61.9588899
  77.2460835  69.6251067  61.7253193  78.0468742  70.1392611  62.2568056
  76.6811862  68.5101673  62.6097892  76.2257497  67.4784582  62.1189338
  76.6966222  68.7427752  63.9197313  77.1656645  69.5596378  64.2841954
  76.1511895  67.7793084  64.8668765  75.2196630  67.3725347  64.4733121
  77.1296597  66.6193374  65.1100084  76.5834462  65.7353774  65.4391965
  77.5277579  66.4482608  64.1098330  78.2705602  66.8926020  66.0669862
  78.2024859  66.4685906  67.3979787  77.2743600  66.0262909  67.7599909
  79.2963977  66.6030068  68.2601558  79.2124627  66.3109379  69.3069378
  80.4733516  67.1666051  67.7895442  81.5815351  67.2346332  68.6079271
  81.4273017  66.8636412  69.4798082  80.5601420  67.6109984  66.4749922
  81.4808223  68.0646270  66.1080190  79.4591457  67.4739292  65.6218578
  79.5212589  67.8237992  64.5914050  75.7276221  68.4227692  66.1848768
  74.7930436  67.9578939  66.8393957  76.3952812  69.5155084  66.5460602
  77.1693121  69.8373033  65.9826565  76.0961188  70.2296979  67.7837742
  75.9076654  69.5157855  68.5855932  77.2789326  71.1226594  68.1893701
  77.4377964  71.8288844  67.3744420  76.9752817  71.6645444  69.0850580
  78.5720493  70.3691428  68.4666116  78.3505807  69.5474680  69.1477160
  78.9441258  69.9685155  67.5236594  79.6290023  71.2701799  69.0864967
  79.7317281  72.1691560  68.4787234  79.3155393  71.5466747  70.0931699
  80.9322071  70.6063477  69.1664974  81.0702383  69.9557768  69.9266318
  81.9469464  70.8314954  68.3283949  81.8226423  71.7146406  67.3401278
  80.9549374  72.2181144  67.2230713  82.5966048  71.8771699  66.7119034
  83.0812924  70.1447827  68.4541799  83.1712241  69.4536455  69.1851668
  83.8463049  70.3183529  67.8179975  74.8201350  71.0699022  67.7145849
  74.4134495  71.5259457  66.6427546  74.2010029  71.2627770  68.8783300
  74.5486080  70.7624646  69.6839090  72.9821193  72.0627012  69.0298330
  72.6143459  71.9884363  70.0532227  73.2714341  73.5384664  68.7181875
  73.6823656  73.5955784  67.7102328  72.3265304  74.0805234  68.7560215
  74.2530285  74.1608175  69.7022061  73.8615628  74.3517403  70.8785279
  75.4100376  74.4561942  69.3009436  71.7906717  71.5638859  68.2137981
  71.1586622  72.3283045  67.4676223  71.4932197  70.2776708  68.3585948
  72.0797696  69.6875780  68.9311758  70.3754112  69.6684343  67.6624073
  69.6781159  70.4436056  67.3446213  70.8490425  68.9017757  66.4281023
  71.4268583  69.6313071  65.8606412  71.4844467  68.0529269  66.6807229
  69.6860545  68.4280713  65.5980498  68.9390359  69.3325724  64.8423476
  69.2678111  70.3704338  64.7889611  67.7977739  68.9318976  64.1669679
  67.2344135  69.6427626  63.5624865  67.3917935  67.6134321  64.2403888
  66.2413028  67.2233536  63.6043480  65.8045817  67.9436492  63.1438608
  68.1213495  66.6908081  64.9743283  67.8023489  65.6497806  65.0253273
  69.2641167  67.0999399  65.6465121  69.8451146  66.3794790  66.2222530
  69.5946765  68.7427625  68.5931049  70.1794485  68.0018975  69.3731016
  68.2732149  68.7666578  68.4650992  67.8691082  69.3995299  67.7896216
  67.3726800  67.9657988  69.2879095  67.7078741  67.9507640  70.3249813
  65.9696373  68.5949727  69.2337579  66.0669628  69.6734809  69.3580437
  65.5359904  68.3799717  68.2571183  65.0318571  68.0634475  70.3105487
  65.3726761  67.1408605  71.0598689  63.8396566  68.6514091  70.3943397
  63.1750842  68.3419374  71.0890847  63.6056623  69.4040314  69.7627488
  67.3253547  66.4997484  68.8380769  66.4358282  66.1077164  68.0851051
  68.2660832  65.6910576  69.3258876  68.9959011  66.0781018  69.9069745
  68.3397558  64.2705600  68.9716083  68.0883085  64.1441748  67.9185650
  69.7470583  63.7173766  69.2082025  70.0300310  64.0088990  70.2196571
  69.6875506  62.6307210  69.1470587  70.7829015  64.2200892  68.2315240
  71.7673205  65.1268264  68.6308182  71.7849554  65.4614581  69.6680309
  72.7170694  65.6035787  67.7282534  73.4795583  66.3128005  68.0503045
  72.6844080  65.1703610  66.4087729  73.6145468  65.6278743  65.5067645
  74.2413542  66.2433744  65.8938972  71.7148026  64.2695932  65.9903235
  71.6885865  63.9306198  64.9547029  70.7729787  63.7990720  66.9005935
  70.0107222  63.0896276  66.5784852  67.3306357  63.3682710  69.6726228
  67.1674516  62.2091137  69.2844293  66.6642832  63.8865984  70.7022155
  66.8693530  64.8252966  71.0134893  65.6765909  63.1081095  71.4499246
  66.1228506  62.1776203  71.8008397  65.1879056  63.9070558  72.6662052
  64.4567598  63.3050422  73.2057464  66.0408282  64.1088448  73.3142055
  64.5915332  65.1354897  72.2723017  64.2962826  65.6122085  73.0515103
  64.4837490  62.6890971  70.5853248  63.9660377  61.5704889  70.7144439
  64.0547658  63.5978987  69.7135668  64.4968202  64.5058578  69.6963195
  62.9341711  63.3561814  68.8089572  62.1090249  62.8844621  69.3425430
  62.4484968  64.6936010  68.2399279  63.2891329  65.0660557  67.6545155
  61.6051825  64.4953983  67.5783868  62.0450070  65.7453614  69.2810720
  62.8827328  65.9140768  69.9577193  61.6727856  67.0521762  68.6006345
  60.8347710  66.8843426  67.9241271  61.3892089  67.7868887  69.3542143
  62.5270125  67.4239756  68.0348060  60.8813502  65.2256556  70.1169104
  61.1803610  64.3102010  70.6274345  60.5991659  65.9768613  70.8545847
  60.0311091  65.0176891  69.4673422  63.3201536  62.3977993  67.6674787
  62.4825345  61.6598570  67.1462989  64.6027912  62.4068028  67.3166730
  65.2138747  63.0501756  67.7991123  65.1663717  61.5846735  66.2507994
  64.4905115  61.4693994  65.4034364  66.4909618  62.2232276  65.7464358
  67.1288994  62.4237649  66.6072027  67.2145940  61.3052471  64.7857952
  66.5774167  61.1046109  63.9244874  68.1364620  61.7815384  64.4520191
  67.4519667  60.3673126  65.2878259  66.2069335  63.5604085  65.0977769
  65.7424267  64.2262714  65.8250747  67.1405718  64.0004819  64.7474138
  65.5329002  63.4191130  64.2529009  65.4393772  60.1297296  66.6589871
  65.0696314  59.1966310  65.9462621  66.1061426  59.9471817  67.7954136
  66.4478370  60.7510384  68.3025217  66.4523537  58.6142782  68.2925567
  67.0446605  58.0870255  67.5447088  67.2703235  58.7098798  69.5879110
  66.7173656  59.3625864  70.2634190  67.3141258  57.7054117  70.0088921
  68.6852259  59.2470469  69.4078780  68.6087913  60.3221809  69.2455654
  69.2274114  59.0576237  70.3342990  69.5924748  58.4944380  68.0182269
  69.3478279  56.6750569  68.3409127  68.2826581  56.4439106  68.3317673
  69.8511659  56.0971497  67.5658160  69.7663893  56.4186314  69.3141309
  65.2690349  57.6821088  68.5120372  64.3169849  58.0248973  69.2204071
  65.3652646  56.4878166  67.9246352  66.1854311  56.2532468  67.3838920
  64.3070507  55.4940974  68.0401666  64.6745978  54.5552081  67.6260469
  64.0796714  55.3598427  69.0976985  63.0339908  55.8946702  67.3065072
  61.9508533  55.3778614  67.5990508  63.1569991  56.7941703  66.3334432
  64.0482744  57.2294421  66.1430065  61.9896088  57.2538811  65.5888923
  61.3045324  56.4061072  65.5958822  61.3283145  58.4234209  66.3233871
  61.9986363  59.2829127  66.3168569  60.3960798  58.6865576  65.8235892
  61.1188139  58.1345185  67.3533114  62.2398000  57.6401124  64.1329353
  61.4943869  57.2215416  63.2568333  63.2898210  58.4130652  63.8736711
  63.8869766  58.7401515  64.6196732  63.5628301  58.8754563  62.5142232
  62.8391263  58.4436293  61.8229364  63.4582438  60.4061273  62.4414508
  64.1848376  60.8666307  63.1108514  63.6358874  60.7488344  61.4220908
  61.8598614  61.0633342  62.9151795  62.1730431  62.3417482  62.7242004
  64.8888093  58.4787017  61.8948679  65.0557828  58.6083868  60.6877098
  65.8326074  58.0133276  62.7012289  65.6894993  57.9137456  63.6960670
  67.1390716  57.6735859  62.1540863  67.0350353  57.0542235  61.2632071
  67.8665929  58.9819963  61.7643106  67.1463335  59.6400923  61.2782704
  68.2308304  59.4537387  62.6769388  69.3119571  58.8812274  60.6301819
  69.5634730  60.1870588  60.6091493  67.9978473  56.8691173  63.1363936
  67.8127345  56.9491438  64.3523829  68.9134513  56.0692308  62.5955740
  68.9769415  55.9969467  61.5901669  69.8216497  55.2601914  63.4075801
  69.6927429  55.5215459  64.4579020  69.5498189  53.7635316  63.2391092
  69.7039798  53.5329282  62.1849954  70.2948372  53.2395594  63.8378587
  68.1506294  53.3136650  63.6594372  68.1976752  52.2506940  63.8960385
  67.8867030  53.8737057  64.5565417  67.0904283  53.5495123  62.5807479
  67.2900752  53.1112551  61.4205579  66.0519270  54.1691314  62.9001834
  71.2629518  55.5651228  63.0078025  71.5071073  56.1145697  61.9252116
  72.2068468  55.2128085  63.8843452  71.9253374  54.7729365  64.7488476
  73.6326105  55.4480011  63.6581765  74.1892180  55.2244562  64.5682947
  74.1608387  54.5559257  62.5294877  73.4796375  54.6229856  61.6812147
  75.1438939  54.9235761  62.2353183  74.2883901  53.1079030  62.9319129
  73.4830665  52.5819308  63.6965331  75.3078850  52.4477016  62.4085219
  75.4473456  51.4744097  62.6395055  75.9422693  52.9198691  61.7802582
  73.8989753  56.8960744  63.2893520  74.7085262  57.1694163  62.4089171
  73.2350788  57.8134542  63.9855378  72.5545295  57.5125653  64.6684858
  73.3568339  59.2401485  63.7135634  73.2353513  59.4524479  62.6513628
  72.3017111  60.0374033  64.4977379  72.5052385  59.9383554  65.5639767
  72.3404497  61.5135844  64.1073433  72.1365402  61.6134759  63.0412553
  71.5860726  62.0596567  64.6737536  73.3264229  61.9225538  64.3280297
  70.9236144  59.4517889  64.2314703  70.9031246  58.4098429  64.5508927
  70.1748137  60.0163763  64.7870224  70.7038137  59.5088355  63.1653867
  74.7418556  59.8309305  63.9460769  75.3549071  59.6224227  64.9966435
  75.2389158  60.5494509  62.9412568  74.7213814  60.6309085  62.0777626
  76.5437189  61.1961445  63.0292370  76.9504396  61.1686803  64.0401392
  77.5760100  60.6064048  62.0431091  78.4738339  61.2243065  62.0576047
  77.9365348  59.1753773  62.4394070  77.0392308  58.5567259  62.4246893
  78.6648476  58.7750409  61.7341467  78.3630667  59.1721054  63.4424818
  77.0587783  60.7233908  60.6083703  76.3496195  59.9106326  60.4514674
  76.5398260  61.6784688  60.5270430  78.1514970  60.6507352  59.5577628
  78.6706281  59.6956765  59.6381711  77.7089823  60.7407589  58.5657065
  78.8608363  61.4635120  59.7137483  76.4481912  62.6977952  62.7719171
  77.4608467  63.3595068  62.5379947  75.2275313  63.2251968  62.8122161
  74.4166836  62.6557059  63.0079339  75.0311125  64.6429574  62.5738809
  74.9562367  65.1468274  63.5375238  75.8964596  65.0239206  62.0315333
  73.7804777  64.9291796  61.7697226  72.8559978  64.1050090  61.7279184
  73.7492691  66.0896606  61.1180028  74.5019064  66.7551322  61.2218492
  72.6002194  66.4704383  60.3196544  72.0826866  65.5777553  59.9684051
  71.6160096  67.3137274  61.1564140  70.7442965  67.4865760  60.5252731
  71.3325146  66.6890696  62.0034874  72.1465793  68.6472912  61.6647538
  72.0305842  69.8028666  60.8925300  71.5566137  69.7280885  59.9138269
  72.5040360  71.0334796  61.3456008  72.3646670  71.9323642  60.7450306
  73.1106161  71.1176608  62.5868905  73.6307024  72.3277699  63.0076686
  73.5145817  73.0302047  62.3636958  73.2388815  69.9758324  63.3862520
  73.7108276  70.0364699  64.3669102  72.7557878  68.7504891  62.9175523
  72.8515530  67.8556754  63.5325625  73.0148172  67.2073848  59.0531524
  74.0837546  67.8133724  59.0036757  72.1753483  67.1158473  58.0212659
  71.3501191  66.5400343  58.1080742  72.4288846  67.7751899  56.7413911
  73.4521774  68.1500024  56.7193293  72.2398035  66.7949975  55.5736029
  72.8924115  65.9434233  55.7660173  71.2001765  66.4684777  55.5993043
  72.5561089  67.3776638  54.1979900  72.4015416  66.5935704  53.4567698
  71.8605941  68.1958431  54.0110572  74.2501692  67.9955505  54.0651606
  75.1869721  66.5225540  54.5592504  74.9655170  65.7038918  53.8745250
  76.2540586  66.7427315  54.5284468  74.9049758  66.2347961  55.5720558
  71.5157839  68.9860672  56.5598740  70.2983817  68.8471647  56.4562310
  72.0962059  70.1953159  56.5612181  73.4662712  70.4784533  57.0183159
  74.1375047  70.5745486  56.1649042  73.8201567  69.6796870  57.6701107
  73.2762582  71.7820484  57.7562887  74.2185064  72.3214012  57.8530659
  72.8499918  71.6159828  58.7456422  72.3047783  72.5236487  56.8680629
  72.8360274  72.9420736  56.0131980  71.7608669  73.3168894  57.3809267
  71.3262041  71.4388401  56.3945636  70.4350889  71.3645114  57.0178511
  70.9131935  71.6931269  54.9441897  71.7636058  71.7854686  54.0602480
  69.6110614  71.8009674  54.6994768  68.9328161  71.6994238  55.4409426
  69.1255952  72.0839569  53.3503813  69.9524426  72.0458016  52.6411798
  67.9988845  71.0975522  52.8916553  67.0982671  71.2804466  53.4777768
  67.6945880  71.3131761  51.4108275  68.5946770  71.1300004  50.8239825
  66.9101947  70.6246598  51.0965454  67.3613821  72.3389963  51.2534558
  68.3930185  69.6374809  53.1537075  68.5787277  69.5376473  54.2231214
  67.5426903  69.0157547  52.8735326  69.6203850  69.1908928  52.3841950
  70.4712920  69.8119018  52.6642040  69.8383824  68.1491984  52.6196716
  69.4352550  69.2900115  51.3146146  68.5461691  73.4990800  53.3339457
  67.6177004  73.8064009  54.0765935  69.0754102  74.3728492  52.4691120
  70.2009404  74.1439176  51.5404646  69.8497787  73.6135389  50.6553181
  70.9746366  73.5550555  52.0331454  70.6532044  75.5386120  51.2337220
  71.1862324  75.5821981  50.2839428  71.2908964  75.9307577  52.0259795
  69.3529381  76.2918361  51.1688688  68.8250352  76.0351373  50.2504335
  69.4452862  77.3753467  51.2435430  68.5899895  75.7499795  52.3745129
  68.8457633  76.2658530  53.3000141  67.0807368  75.8112519  52.1593381
  66.5392790  75.1044395  51.3068150  66.3983458  76.5907299  52.9925533
  66.8672222  77.0703198  53.7477008  64.9554958  76.7479248  52.8647317
  64.5649484  76.0529391  52.1213833  64.2032431  76.5227656  54.1937871
  64.5147674  77.2734301  54.9201167  62.7109309  76.6397975  53.9551619
  62.3985600  75.8890942  53.2292349  62.1789095  76.4809446  54.8931489
  62.4806814  77.6336320  53.5712613  64.5410348  75.1617269  54.7908678
  65.6124827  75.1043579  54.9827279  63.9973575  75.0297196  55.7263295
  64.2551831  74.3763663  54.0911548  64.6213985  78.1466201  52.3483872
  65.0819987  79.1483997  52.8957719  63.8628640  78.1912339  51.2599461
  63.5550807  77.3316509  50.8281062  63.4551836  79.4441899  50.6612208
  63.9131984  80.2815114  51.1877324  63.7454674  79.4734918  49.6109942
  61.9492587  79.5647289  50.7596467  61.2787364  78.6122191  51.1474337
  61.4099798  80.7349461  50.4350840  61.9937587  81.5320354  50.2254409
  59.9717164  80.9339415  50.5070239  59.4471558  79.9812508  50.5799324
  59.5516248  81.8349983  51.7298128  59.7139363  81.2724549  52.6492143
  60.3702883  83.1262908  51.7713538  60.2081210  83.6896364  50.8524172
  60.0583701  83.7275419  52.6253471  61.4286282  82.8832445  51.8659420
  58.0460163  82.1598530  51.6719025  57.4724665  81.2334634  51.7026411
  57.7751367  82.7827423  52.5243888  57.8242005  82.6934077  50.7476634
  59.4003660  81.4706241  49.2093069  59.9781034  82.3526832  48.5826273
  58.2906067  80.8796117  48.7835433  57.9050355  80.1095674  49.3112421
  57.6095371  81.2908652  47.5672096  58.0899594  82.1507087  47.1003446
  57.5687688  80.1472841  46.5575873  57.0822314  79.2818686  47.0075177
  57.0096092  80.4601754  45.6758051  58.5853042  79.8818196  46.2672708
  56.1962845  81.7109308  47.9511887  55.5163337  81.0189652  48.7248576
  55.7690646  82.8597322  47.4387480  56.3498135  83.4178440  46.8293702
  54.4391611  83.3411407  47.7502083  53.7556041  82.8464425  47.0601919
  54.2196103  83.0225640  48.7692303  54.2418150  84.8462401  47.6486835
  55.1606093  85.5831731  47.2917456  53.0482449  85.3348887  48.0047171
  52.6374726  86.7509670  47.9194269  52.9503798  87.1683776  46.9623700
  53.0966545  87.3172274  48.7297356  51.1193578  86.6683509  48.0546411
  50.6390728  86.4231196  47.1073888  50.6956222  87.5924877  48.4477322
  50.9771768  85.5378767  49.0570541  49.9624466  85.1399180  49.0499517
  51.2589602  85.7948980  50.0781504  51.9459938  84.4995452  48.4948241
  52.3543926  83.8265865  49.2487706  51.2702794  83.6821252  47.3965143
  51.2549039  84.0829664  46.2214841  50.7663214  82.5101019  47.7737577
  50.8898295  82.1726318  48.7176640  50.0505634  81.6651308  46.8258687
  50.2809401  82.0047182  45.8160637  50.4266745  80.1820517  46.9421992
  51.4835680  80.1589634  46.6766013  50.3051504  79.8579086  47.9757674
  49.6420786  79.2350607  46.0110815  48.5884950  79.2887667  46.2852676
  49.8041821  79.6042111  44.5335188  50.8575243  79.5502775  44.2584549
  49.2327994  78.9078893  43.9197123  49.4377534  80.6175595  44.3693375
  50.0849779  77.7898373  46.2640512  49.8868590  77.5250773  47.3026804
  49.5314011  77.1192943  45.6067643  51.1521185  77.6958131  46.0628816
  48.5760785  81.8756512  47.1196401  48.0946216  81.5753575  48.2147095
  47.8826384  82.4722106  46.1594210  48.3500588  82.7926095  45.3233815
  46.4642092  82.7456738  46.3025870  46.2196043  82.9193624  47.3504897
  46.0931565  83.9925041  45.5015158  46.2670417  83.8599313  44.4336733
  45.0581181  84.2919983  45.6661329  47.1200227  85.4172521  46.0092952
  46.5734219  86.2896872  45.1672840  45.7020832  81.5166466  45.8541707
  45.5333844  81.2660635  44.6622812  45.2414849  80.7552741  46.8384914
  45.4186810  81.0161228  47.7980011  44.5420434  79.5136116  46.5826679
  44.1865017  79.4786116  45.5528795  45.5155428  78.3369543  46.8087159
  46.2570696  78.4945605  46.0255190  45.9836736  78.4711357  47.7838820
  44.9580738  76.9208289  46.7031739  44.1147454  76.8068590  47.3842826
  44.4955473  76.6736745  45.2812069  45.3384884  76.7870185  44.5995161
  44.0958847  75.6629194  45.1990808  43.7191498  77.3930823  45.0209000
  46.0168989  75.8906900  47.1612540  46.2919528  76.0878624  48.1973851
  45.6047788  74.8848478  47.0803851  46.9012314  75.9723395  46.5292822
  43.3012303  79.3688363  47.4512484  43.3811340  79.4159952  48.6737971
  42.1649983  79.1323609  46.8022166  42.1775817  79.1310240  45.7922962
  40.8771036  78.9806834  47.4801621  40.0713997  79.0227080  46.7472404
  40.7999789  77.6374855  48.2168962  41.5564214  77.6491226  49.0015990
  39.8107994  77.5573116  48.6676690  41.0391381  76.4391227  47.2961646
  40.2353369  76.2090219  46.3624873  42.0390534  75.7292209  47.5238105
  40.5757263  80.1576917  48.4333575  40.1440275  79.9680814  49.5719044
  40.8449250  81.3689692  47.9492864  41.3306016  81.4252593  47.0655166
  40.6115081  82.6079745  48.6930259  40.9907314  83.4582783  48.1262170
  39.1137034  82.8085574  48.9319937  38.7651749  81.9738362  49.5401612
  38.9931795  83.7380559  49.4884166  38.2903527  82.8769830  47.6369761
  38.6223795  83.7534484  47.0804983  38.5011566  81.9780844  47.0576297
  36.7904377  82.9761003  47.8930693  36.3739398  82.9010651  49.0772505
  36.0218827  83.1260728  46.9097431  41.4114028  82.7401062  49.9907977
  40.9559536  83.3239985  50.9740651  42.6071255  82.1703030  49.9886331
  42.9204850  81.6669542  49.1709870  43.5018990  82.2524378  51.1330806
  43.1606578  83.0462708  51.7975223  43.5411425  80.9386515  51.9198484
  43.8962939  80.1718251  51.2314125  44.2695902  81.0740114  52.7193118
  42.2098343  80.5076130  52.5152183  41.8806974  81.2590314  53.2329510
  41.4734109  80.4219585  51.7161902  42.3545938  79.1654251  53.2170760
  43.0725648  78.5621347  52.6615065  42.7319546  79.3425682  54.2242099
  41.0208662  78.4246134  53.2963445  40.3697829  78.9578190  53.9890803
  40.5687387  78.4193791  52.3045519  41.2043067  77.0141707  53.7688421
  41.6228510  77.0188070  54.6880259  40.3064415  76.5534757  53.8100519
  41.8072408  76.5197935  53.1268446  44.8621651  82.5513088  50.5432967
  45.0345659  82.4948783  49.3249344  45.8137950  82.9152436  51.3938529
  45.6098832  82.9892166  52.3802845  47.1667763  83.2235543  50.9420176
  47.2511929  83.0123066  49.8760216  47.5027088  84.6923160  51.1757470
  47.3329125  84.8851170  52.2350374  48.5630568  84.8080442  50.9513166
  46.6986062  85.6804057  50.3458803  46.6502351  85.3191791  49.3186138
  45.6933084  85.7160722  50.7656461  47.3092097  87.0843023  50.3646111
  48.1953769  87.3470926  51.2158190  46.9149871  87.9214403  49.5160915
  48.1464257  82.3579456  51.7105764  48.0697673  82.2572429  52.9387158
  49.0670759  81.7339821  50.9855731  49.0686459  81.8235014  49.9795496
  50.0464895  80.8564588  51.5998335  49.9668119  80.9034259  52.6859019
  49.7936659  79.4100377  51.1514629  49.8985458  79.3147833  50.0707104
  50.5110214  78.7542024  51.6447998  48.4189143  78.8874002  51.5002496
  47.3620130  79.0177753  50.6058582  47.5326169  79.5222465  49.6548045
  46.0957656  78.5132405  50.9115966  45.2774272  78.6231454  50.2000181
  45.8795335  77.8688718  52.1278855  44.8947580  77.4710728  52.3729838
  46.9324039  77.7340284  53.0348381  46.7742774  77.2326650  53.9896842
  48.1917257  78.2444745  52.7145708  49.0164700  78.1429090  53.4199651
  51.4885084  81.2438103  51.3002179  51.8155106  81.6724573  50.1916885
  52.3309154  81.1586501  52.3233719  51.9918758  80.8642924  53.2280846
  53.7531380  81.4440105  52.1776001  53.9240758  81.9947333  51.2526224
  54.2600557  82.2882891  53.3507118  54.1440045  81.6881478  54.2531871
  55.3187930  82.4796500  53.1759078  53.5286249  83.6092895  53.5236448
  52.4648499  83.4112897  53.6550970  53.9195298  84.0986708  54.4157219
  53.7047488  84.5399476  52.3457714  54.7754449  84.5979001  51.7443070
  52.6465228  85.2694260  51.9997800  52.7102128  85.9076451  51.2195741
  51.7847077  85.1813855  52.5190343  54.3585522  80.0421871  52.2039219
  54.4048765  79.3906646  53.2514683  54.7725491  79.5740911  51.0281839
  54.6147007  80.1234103  50.1954585  55.2855356  78.2159999  50.8744956
  54.9731328  77.5780717  51.7012672  54.7946489  77.5807909  49.5443780
  55.3492088  78.0222166  48.7163044  55.0156150  76.0644518  49.5559431
  54.4609542  75.6222325  50.3835266  54.6653391  75.6385328  48.6157302
  56.0779516  75.8524770  49.6768124  53.3199990  77.9046156  49.3306072
  53.1879289  78.9855702  49.2837369  52.9808413  77.4568213  48.3965023
  52.7356064  77.5032655  50.1585590  56.7777953  77.9799012  51.0326964
  57.5968660  78.4934877  50.2668080  57.1412628  77.1881609  52.0506952
  56.2013009  76.6866140  53.0681097  55.3208570  76.2693597  52.5794201
  55.8996105  77.5041940  53.7228195  57.0190327  75.6328314  53.7962676
  57.0092552  74.6801361  53.2667629  56.6647693  75.4845995  54.8163784
  58.4055056  76.2583801  53.7885350  59.1229390  75.4497737  53.9283346
  58.5988641  77.0450917  54.5177791  58.5246658  76.8186299  52.3746428
  59.1614384  77.7001723  52.3004677  59.0181518  75.7482764  51.3930217
  58.2972736  74.7949217  51.0965043  60.2210676  75.9377997  50.8546767
  60.7554056  76.7623419  51.0885834  60.7876180  74.9945735  49.8902955
  60.2736965  74.0364873  49.9681067  60.6280504  75.5221696  48.4564666
  61.1666847  76.4684595  48.4063889  61.1064791  74.7970895  47.7980861
  59.1772088  75.7363965  48.0114502  58.7078059  74.7575138  47.9137239
  58.6682875  76.3068702  48.7884064  59.0406275  76.6266026  46.4284248
  59.5818369  75.3351108  45.2552042  58.9169109  74.4745885  45.3291882
  59.5520929  75.7303670  44.2398282  60.5998881  75.0286960  45.4955852
  62.2580919  74.7456249  50.1807092  63.0865603  75.6469755  50.0554804
  62.5744484  73.5136572  50.5654171  61.8416280  72.8268054  50.6717569
  63.9422137  73.1180676  50.8749975  64.5210714  73.9717087  51.2275878
  63.9356065  72.0502127  51.9642872  63.3673222  71.1851980  51.6223771
  64.9596123  71.7479345  52.1836965  63.4751567  72.4533764  52.8662541
  64.6257902  72.5912985  49.6177778  64.2835036  71.5180718  49.1235457
  65.6509198  73.2861856  49.1445903  65.9636713  74.1431199  49.5781216
  66.3290350  72.8359676  47.9352986  66.5144427  71.7619163  47.9470012
  65.4920247  73.1758571  46.6938515  64.4935995  72.7548938  46.8123304
  65.3882435  74.6930290  46.5187749  66.3863161  75.1146772  46.3997641
  64.7918175  74.9172891  45.6344206  64.9125944  75.1289808  47.3972989
  66.0720437  72.5634789  45.5286639  65.5438565  72.7801209  44.7568577
  67.7129758  73.4298440  47.7568252  68.0788859  74.4076325  48.4220412
  68.4801783  72.8158701  46.8558133  68.1150408  72.0122686  46.3648972
  69.8269737  73.2665424  46.5362235  70.0748362  74.1760669  47.0834242
  70.9157633  72.2037908  46.8238643  71.8791080  72.5977489  46.5000369
  70.9798533  71.8618231  48.3115553  70.0169402  71.4673419  48.6360281
  71.7539639  71.1131214  48.4797746  71.2144429  72.7606908  48.8817352
  70.6700620  71.0304034  46.0349797  71.3474563  70.3749224  46.2168640
  69.9104700  73.5967736  45.0582023  71.0080638  73.7564348  44.5182670
  68.7595536  73.6697248  44.3931221  67.8838082  73.4618061  44.8513133
  68.7360784  73.9944532  42.9715616  69.7241149  73.8256619  42.5433179
  67.7266701  73.1255876  42.2264029  67.9151437  72.0850899  42.4908674
  66.7272452  73.4086030  42.5567849  67.8277860  73.2917480  40.7123909
  67.8543586  74.3632985  40.5144661  68.7696015  72.8414230  40.3988785
  66.6804646  72.6607736  39.9353922  66.0028635  71.7523509  40.4640452
  66.4621489  73.0796826  38.7764192  68.4151561  75.4687859  42.7204027
  67.3062286  75.9350525  43.0013786  69.3795209  76.1853742  42.1446009
  70.2639845  75.7635769  41.8998345  69.1847190  77.5940730  41.8530090
  68.9804164  78.1024932  42.7952768  70.1130547  77.9761887  41.4284152
  68.0508785  77.8705812  40.8879106  67.7787712  77.0759529  39.9805637
  67.3929201  79.0067725  41.1026691  67.6349821  79.5232309  41.9362014
  66.2739294  79.4843631  40.2918023  66.0857688  80.5353851  40.5109998
  66.5823883  79.3436441  38.7993295  66.6964707  78.2934735  38.5305802
  65.7858083  79.7866543  38.2015817  68.1205251  80.1674110  38.2805062
  68.0323424  79.8307964  36.9968347  64.9245176  78.8589355  40.6070613
  63.8938876  79.4263367  40.2538280  64.9233786  77.7180366  41.2972411
  65.7958541  77.2689769  41.5364720  63.6764903  77.0327101  41.6324516
  63.1242512  76.8175784  40.7176568  63.9465667  75.7103600  42.3651009
  64.5557050  75.1251078  41.6762398  64.5181267  75.9155702  43.2702572
  62.6826470  74.9203946  42.7270437  62.0922999  75.4945050  43.4411784
  61.8536922  74.6620665  41.4746478  62.4432540  74.0875641  40.7601812
  60.9580387  74.1006339  41.7405407  61.5660301  75.6129701  41.0261690
  63.0481277  73.6194762  43.4061419  63.6074634  73.8295351  44.3177988
  62.1395169  73.0716800  43.6560358  63.6611956  73.0182528  42.7347424
  62.7010533  77.8854510  42.4420322  61.5661867  78.0961350  42.0188158
  63.1341454  78.3614448  43.6077256  64.0516703  78.1183083  43.9528808
  62.2748621  79.1963003  44.4490933  61.3336937  78.6826730  44.6452772
  62.9339606  79.5511131  45.7992055  63.7844526  80.2097880  45.6233932
  61.9271899  80.2526796  46.6952586  61.0765639  79.5944012  46.8719107
  62.3977070  80.5007575  47.6466636  61.5840413  81.1668807  46.2109166
  63.4557109  78.3064522  46.4905064  64.1973001  77.8214805  45.8557231
  63.9154257  78.5828988  47.4393685  62.6299914  77.6189967  46.6740630
  61.8733125  80.4990870  43.7297889  60.7133108  80.9015204  43.7777396
  62.8244747  81.1364638  43.0464220  63.7666525  80.7727417  43.0360986
  62.5506907  82.3817045  42.3169976  62.1579018  83.1322236  43.0029547
  63.8327077  82.9269447  41.6758201  64.2329984  82.1901723  40.9793765
  63.6076050  83.8486265  41.1392274  64.5699978  83.1301101  42.4524966
  61.5102984  82.1459769  41.2344648  60.5378604  82.9007921  41.1073215
  61.7279105  81.0839785  40.4610475  62.5578377  80.5262532  40.6033947
  60.8278743  80.7174454  39.3782191  60.7520806  81.5356906  38.6620982
  61.3589908  79.4814251  38.6530555  62.3386464  79.7113277  38.2341058
  61.4531044  78.6649577  39.3690329  60.4772144  79.0960716  37.6097540
  60.8263152  78.3195427  37.1662099  59.4198189  80.4498926  39.8931943
  58.4465658  80.9652052  39.3459154  59.3177411  79.6553629  40.9542591
  60.1525312  79.2837779  41.3845490  58.0255257  79.3206332  41.5469154
  57.3815411  78.8472402  40.8057798  58.1817876  78.3680456  42.7413341
  58.6703222  78.8989218  43.5584050  56.8230576  77.8712916  43.2018318
  56.3340783  77.3398725  42.3853805  56.9500460  77.1971888  44.0489201
  56.2081602  78.7196630  43.5022775  59.0026255  77.2595003  42.3773141
  59.0951562  76.6694318  43.1288842  57.3380115  80.5801004  42.0745949
  56.1090651  80.7002718  42.0265258  58.1439039  81.4847363  42.6314353
  59.1281249  81.2746585  42.7167330  57.6564674  82.7566671  43.1686827
  56.8930092  82.5809979  43.9265555  58.8225066  83.5148761  43.8143232
  59.5225913  82.8005552  44.2475970  59.3242541  84.0868149  43.0337878
  58.3695025  84.4738716  44.9045795  57.4824946  84.1519430  45.7100762
  58.9896462  85.6556604  44.9502197  58.7296327  86.3321211  45.6537066
  59.7158557  85.8676124  44.2810434  57.0137939  83.5825480  42.0456865
  55.9137135  84.0992868  42.2071832  57.6624047  83.6316201  40.8871089
  58.5580698  83.1779657  40.7771955  57.1167994  84.3663742  39.7539301
  56.9492085  85.4050836  40.0387026  58.0806669  84.3344858  38.5658984
  59.0336371  84.7376267  38.9085710  58.2102213  83.2908342  38.2793550
  57.5947436  85.1331795  37.3653119  56.7095611  84.6435289  36.9593623
  57.3326708  86.1367058  37.7005057  58.6612863  85.2219884  36.2897034
  58.3619098  85.9618102  35.5473179  59.6048378  85.5248205  36.7436888
  58.8546782  83.9402797  35.6206260  58.5696383  83.1125468  36.1243222
  59.3926030  83.7943881  34.4109139  59.8018936  84.8635204  33.7174340
  59.7023090  85.7871379  34.1138096  60.2084571  84.7417867  32.8009262
  59.5042837  82.5719213  33.8845238  59.1810948  81.7694992  34.4058373
  59.9114137  82.4555297  32.9675740  55.7762991  83.7685525  39.3410218
  54.8513525  84.5004407  38.9590473  55.6845151  82.4323915  39.4179797
  56.4735929  81.8834089  39.7279371  54.4601806  81.7379209  39.0618649
  54.1861378  82.0035486  38.0408645  54.6314556  80.6632354  39.1236319
  53.3222067  82.1099998  39.9904695  52.1880169  82.2819641  39.5427109
  53.6189786  82.2183879  41.2863200  54.5519443  82.0095685  41.6120020
  52.6067708  82.5969747  42.2751119  51.7533095  81.9232534  42.1989373
  53.1692420  82.5154865  43.6974294  54.0604084  83.1375675  43.7807172
  52.4208492  82.8560832  44.4129726  53.6685742  80.8346304  44.2439678
  54.0741708  81.1977774  45.4574396  52.1032104  84.0229364  41.9895352
  50.9142413  84.3145316  42.1373147  53.0181739  84.8908974  41.5619858
  53.9783982  84.5863817  41.4889192  52.7058140  86.2774976  41.2353969
  52.2898079  86.7876590  42.1041739  53.9865923  86.9986539  40.8119555
  54.6389969  87.0053185  41.6851239  54.4369027  86.3907720  40.0272261
  53.8024448  88.4115833  40.3106600  54.6779025  88.6700496  39.7149505
  52.9153232  88.4270494  39.6775107  53.6390481  89.4230939  41.4378579
  52.7141272  89.2290850  41.9809792  54.4835032  89.3557920  42.1237627
  53.5860201  90.7798550  40.8909903  54.3123668  91.0387132  40.2386773
  52.6883307  91.6974638  41.2379787  51.7608857  91.4174869  42.1479593
  51.7386361  90.5035221  42.5772299  51.0826415  92.1199860  42.4059895
  52.6807915  92.8810771  40.6279561  53.3572380  93.0769477  39.9039706
  51.9986631  93.5775376  40.8920438  51.6548120  86.3432968  40.1240882
  50.6325926  87.0178724  40.2630641  51.8900228  85.6008843  39.0444078
  52.7549327  85.0841209  38.9737978  50.9652937  85.5634429  37.9115000
  50.8468727  86.5858855  37.5527706  51.5298543  84.7201523  36.7900905
  51.6456187  83.6914128  37.1312554  50.8503778  84.7455871  35.9381721
  52.5010226  85.1148344  36.4914980  49.5867155  85.0519012  38.3059948
  48.5733613  85.5167270  37.7808289  49.5467873  84.1055563  39.2430413
  50.4078363  83.7334406  39.6175060  48.2856762  83.5320689  39.7054199
  47.6242880  83.3128608  38.8672000  48.5335716  82.2295637  40.5258199
  49.2901286  82.4302940  41.2843905  47.2493359  81.7620466  41.2007793
  46.4923981  81.5606605  40.4427624  47.4465501  80.8519842  41.7673424
  46.8893995  82.5386996  41.8755793  49.0995492  81.1365056  39.6102554
  48.3215870  80.8942296  38.8862540  49.9558144  81.5681131  39.0919655
  49.5288617  79.8756094  40.3302036  48.6729619  79.4431468  40.8483846
  49.9159366  79.1576408  39.6071592  50.3071882  80.1170310  41.0540982
  47.4884871  84.5374504  40.5385284  46.2678509  84.6517452  40.3824481
  48.1810314  85.2271012  41.4443368  49.1714848  85.0625098  41.5539320
  47.5478706  86.2272290  42.2963691  46.7601170  85.7482355  42.8778402
  48.2967206  86.6410825  42.9716826  46.9408423  87.3581002  41.4765630
  45.7948144  87.7587763  41.7010460  47.7004583  87.8457565  40.5007824
  48.6342080  87.4861069  40.3634400  47.2343829  88.9084566  39.6226672
  46.8745504  89.7506078  40.2137688  48.3809757  89.3914257  38.7303909
  48.8415676  88.4754379  38.3603629  47.9483908  89.9428727  37.8955996
  49.4420019  90.2544006  39.4160611  49.8148553  89.7311175  40.2965473
  50.6002493  90.5250299  38.4561314  50.2282270  91.0487377  37.5755473
  51.3496516  91.1400369  38.9543916  51.0500228  89.5795820  38.1529278
  48.7995384  91.5638186  39.8906241  47.9984575  91.3414844  40.5955613
  49.5522287  92.1819860  40.3799375  48.3907104  92.0998504  39.0341029
  46.0834997  88.4045582  38.7503323  45.3575160  89.1966745  38.1264336
  45.9266415  87.0816503  38.7084259  46.5359069  86.4728086  39.2358789
  44.8781951  86.4786210  37.9055081  44.6547290  87.1595249  37.0842092
  45.2635043  85.5410118  37.5048523  43.6056268  86.1995753  38.6735449
  42.6524957  85.6549310  38.1175830  43.5642305  86.5925836  39.9393536
  44.3433475  87.0637837  40.3764423  42.3744284  86.3472659  40.7342450
  42.2271203  87.2043838  41.3913207  41.5274994  86.2622818  40.0533717
  42.4593936  85.0821603  41.5806259  41.4528386  84.6375903  42.1492142
  43.6521804  84.4905044  41.6575552  44.4527589  84.8623042  41.1667006
  43.8303938  83.2859541  42.4565249  44.8752570  83.2841851  42.7669390
  43.1921872  83.4096126  43.3314536  43.5077213  81.9508695  41.7911328
  42.9558790  81.8834889  40.6857935  43.8200957  80.8792388  42.5112661
  44.2524608  81.0107906  43.4145125  43.6073085  79.5202607  42.0402946
  43.2247771  79.5355371  41.0197381  44.9426511  78.7637478  42.0522627
  45.3338171  78.7321219  43.0691644  44.7880450  77.7469675  41.6912154
  45.6557910  79.2741198  41.4049211  42.5813868  78.7977708  42.9006609
  42.4072606  79.1302211  44.0713670  41.9034289  77.8166359  42.3061550
  42.1216525  77.5941296  41.3454424  40.8924077  77.0091987  42.9938078
  40.7581376  77.3746193  44.0119132  39.5516403  77.0936747  42.2635453
  39.7584269  77.1620045  41.1955240  39.0027392  76.1745996  42.4687491
  38.7763402  78.2043874  42.6647623  37.9489921  78.2097422  42.1778677
  41.3406436  75.5460448  42.9640356  41.8551975  75.0734519  41.9508001
  41.1115247  74.8205101  44.0558455  40.6677975  75.2381415  44.8613203
  41.5102790  73.4209685  44.1348026  41.6592225  73.0208784  43.1318854
  42.8216272  73.2838692  44.9165947  43.2610331  72.3121270  44.6913419
  43.5019754  74.0728039  44.5959573  42.6001042  73.3898737  46.3137206
  43.4356963  73.3006725  46.7778636  40.4615726  72.5538474  44.8076011
  39.6666855  73.0226489  45.6261961  40.4846417  71.2694538  44.4679838
  41.1555025  70.9429114  43.7872378  39.5607063  70.3047162  45.0432417
  39.1764074  70.6822604  45.9908037  38.3850446  70.0615893  44.1027068
  38.8115530  69.8604938  43.1199808  37.8767849  69.1688920  44.4672113
  37.3970831  71.1945103  43.9988021  37.9326601  72.0895411  43.6822930
  36.6519751  70.9328469  43.2475043  36.7049447  71.4612294  45.3279501
  36.2806918  70.5327063  45.7099884  37.4290831  71.8506922  46.0435210
  35.6288626  72.4384171  45.1715774  34.6851130  72.0849731  45.2387598
  35.8075244  73.7526615  45.0155885  37.0301049  74.2853934  45.0067122
  37.8379864  73.6898038  45.1194096  37.1425152  75.2819939  44.8873354
  34.7529973  74.5294440  44.7965170  33.8301605  74.1216277  44.7500597
  34.8786348  75.5244894  44.6773594  40.2488535  68.9702120  45.3041959
  41.0936802  68.5207385  44.5164628  39.9106366  68.3607747  46.4340585
  39.2500310  68.7906785  47.0656299  40.4303491  67.0468108  46.7707880
  41.4192987  66.9051207  46.3348961  40.5275196  66.8392240  48.2729516
  39.5712488  67.0877306  48.7332667  40.8780572  65.3678242  48.5783630
  41.8344943  65.1186942  48.1187291  40.9460775  65.2263337  49.6569983
  40.1015601  64.7176132  48.1753995  41.5695991  67.7628863  48.8418182
  41.2911503  68.7964060  48.6358929  41.6389241  67.6136073  49.9193197
  42.5349168  67.5489096  48.3830410  39.3907965  66.0967173  46.2020077
  38.2271145  66.1387902  46.6038210  39.8114014  65.2583677  45.2586693
  40.7805413  65.2962575  44.9768332  38.9309852  64.3015532  44.5881028
  37.9202326  64.7042756  44.5225827  39.4386552  64.0312793  43.1801844
  40.3423623  63.4435522  43.3413975  38.6992320  63.4239927  42.6581151
  39.7746059  65.2605542  42.3371129  40.3889722  65.9459783  42.9209354
  40.5273809  64.8344890  41.1130033  39.9134312  64.1493632  40.5283947
  40.7678057  65.7104086  40.5104574  41.4491095  64.3334149  41.4087083
  38.4712901  66.0113809  41.9866202  37.9733553  66.3239345  42.9044822
  38.7075539  66.8891001  41.3850475  37.8118128  65.3517717  41.4226128
  38.7926367  62.9682990  45.2847648  37.7642572  62.3041270  45.1561948
  39.8519219  62.5485620  45.9684027  40.6900160  63.1116254  45.9940414
  39.8573460  61.2718446  46.6652364  38.9028702  61.0909273  47.1595482
  40.1078665  60.1524853  45.6685417  41.0644960  60.3148187  45.1719455
  40.1285348  59.1967973  46.1923104  39.3105243  60.1417782  44.9254199
  40.9334857  61.2784493  47.7440523  41.9087943  62.0275368  47.6586717
  40.7577616  60.4296691  48.7495283  39.9430857  59.8329379  48.7672601
  41.6981755  60.3475775  49.8588811  42.6934087  60.6484117  49.5316061
  41.2473239  61.2885331  50.9925302  41.1252662  62.2900050  50.5799102
  40.2830543  60.9205448  51.3430567  42.2325696  61.3362421  52.1654669
  43.3602867  60.8023671  52.0529964  41.8902841  61.9313609  53.2154723
  41.7664599  58.9129145  50.3526021  40.7611241  58.3541090  50.7884396
  42.9468518  58.3135275  50.2555440  43.7512551  58.7860592  49.8685706
  43.1059667  56.9469736  50.7106909  42.9154711  56.9415567  51.7839017
  42.3477268  56.3494448  50.2045972  44.4685197  56.3389641  50.4488209
  44.8753281  56.1514664  49.3044344  45.1861548  56.0612450  51.5269572
  44.8240531  56.3078188  52.4370029  46.5023093  55.4327647  51.4525282
  47.0932662  55.8873679  50.6574150  47.2429023  55.6270751  52.7886552
  47.2578323  56.7020644  52.9683055  46.6265917  55.1413272  53.5451672
  48.6666831  55.0788734  52.8634574  49.1548607  55.6120108  53.6792686
  48.5728369  54.0245976  53.1238370  49.6679764  55.2342720  51.3700998
  49.6199792  57.0875030  51.0266860  50.0433090  57.6257767  51.8747145
  50.2012142  57.3067513  50.1310316  48.5876235  57.4029126  50.8754915
  46.2405805  53.9486691  51.1399528  45.1557756  53.4356382  51.4216822
  47.1821333  53.2893076  50.4794403  48.0349870  53.7380947  50.1772318
  46.9773393  51.8854508  50.1312817  46.1167284  51.4838067  50.6661928
  46.7428629  51.6995686  48.5958734  46.5792530  50.6399903  48.3993387
  45.5314179  52.5036286  48.1047251  45.6945083  53.5634250  48.3005122
  45.4016141  52.3483116  47.0336851  44.6365005  52.1710310  48.6306551
  47.9090637  52.1126484  47.8795943  47.7634245  51.9979124  46.9376680
  48.1258418  50.9713277  50.5293259  49.2000201  51.4278020  50.8614226
  47.8543688  49.6724714  50.5146036  46.9019777  49.3983768  50.3198664
  48.8339719  48.6254071  50.7854448  49.8117335  48.9647359  50.4434836
  48.9301432  48.2758136  52.2774540  49.1181679  49.2090532  52.8083116
  47.9579381  47.8804957  52.5718027  50.0335317  47.2489939  52.6326357
  50.1015152  47.1965186  53.7192476  49.7242293  46.2798483  52.2412397
  51.4049070  47.6209548  52.0518767  51.8798264  46.7082787  51.6919144
  51.2458974  48.3014414  51.2153640  52.2960116  48.2637960  53.0155788
  52.0101105  48.2427333  53.9840396  53.4269347  48.8933045  52.7002026
  53.8274732  48.9921952  51.4333279  53.2686089  48.5852937  50.6969843
  54.6881303  49.4736056  51.2151239  54.1866307  49.4026510  53.6599093
  53.9044116  49.3110104  54.6253390  55.0441084  49.8799825  53.4211934
  48.3333172  47.4491379  49.9514557  47.1329495  47.1171911  49.9701797
  49.2237346  46.8960503  49.1306683  50.1787995  47.2221015  49.0901601
  48.8341893  45.7975700  48.2651104  47.7777577  45.5988142  48.4455203
  48.9703590  46.1291516  47.2357364  49.6217472  44.5169130  48.4800757
  50.5419938  44.2319737  47.7183109  49.2705938  43.7218929  49.5001264
  48.2221738  43.9764963  50.5061172  47.3417025  44.4047619  50.0270981
  48.5931380  44.6649824  51.2653744  47.9691527  42.6025476  51.0542223
  47.3500320  42.0075015  50.3828739  47.5034024  42.6407285  52.0389660
  49.3664223  42.0548815  51.1423614  49.3416344  40.9680871  51.2221263
  49.9657420  42.4647660  51.9553253  49.9688291  42.4665632  49.7863517
  51.0360442  42.6832251  49.8333377  49.7149068  41.3916789  48.7348351
  48.7661747  41.4805732  47.9593544  50.6066160  40.4096443  48.6920367
  51.4407138  40.4560132  49.2596897  50.4478438  39.2785902  47.7901509
  49.5056321  39.3302209  47.2445590  51.5992316  39.1590285  46.7738473
  51.5511769  40.0057946  46.0891743  52.9411987  39.1518617  47.4733228
  52.9901824  38.3050483  48.1578727  53.7368368  39.0665887  46.7331951
  53.0645204  40.0787802  48.0334260  51.4199168  37.9083909  45.9088099
  50.4752682  37.9719331  45.3687141  52.2414507  37.8382415  45.1958859
  51.4151984  37.0234439  46.5451646  50.3313119  37.9902702  48.6203756
  51.1372905  37.7319017  49.5272373  49.2775761  37.2316298  48.3431490
  48.6045907  37.5527919  47.6619405  49.0345496  35.9572311  49.0066963
  49.8646501  35.6533324  49.6444094  47.7254677  35.9694055  49.8623090
  47.6635665  35.0391415  50.4270004  47.7256295  37.1428756  50.8211301
  47.7870476  38.0735805  50.2571114  46.8067459  37.1338644  51.4073658
  48.5832143  37.0664524  51.4895682  46.4871175  35.9674061  48.9877492
  46.4826605  35.0725693  48.3653753  45.5972013  35.9760670  49.6170931
  46.4898766  36.8521424  48.3510901  48.9421322  34.8824405  47.9244846
  48.7673209  35.1981868  46.7464373  49.0957190  33.6211050  48.3219035
  49.2382514  33.4233285  49.3020404  49.0254533  32.4927333  47.3880743
  48.6794019  32.8456898  46.4165964  50.3909030  31.8408227  47.2110294
  50.8346744  31.7961814  48.2056013  50.1977628  30.8291654  46.8541730
  51.3335233  32.5274837  46.2754421  50.7762864  32.9499334  45.4393057
  51.8564104  33.3252228  46.8029869  52.3489054  31.5139661  45.7501172
  51.8212811  30.6278418  45.3972782  52.9045353  31.9582464  44.9242904
  53.2933678  31.1135749  46.7869511  52.9463244  31.0534825  47.7335498
  54.5635966  30.7924337  46.5548276  55.0392399  30.8221703  45.3155568
  54.4343072  31.0888822  44.5519985  56.0037976  30.5779400  45.1421221
  55.3675496  30.4771185  47.5653715  55.0113996  30.4819624  48.5104819
  56.3308587  30.2341452  47.3834420  48.1113954  31.3912003  47.8750910
  48.0385944  31.1151567  49.0659792  47.4257758  30.7596064  46.9346784
  47.5215930  31.0733260  45.9794306  46.5382048  29.6431056  47.2068198
  46.5042101  29.4582759  48.2804964  45.1131767  29.9375448  46.7139949
  45.2875827  30.3982899  45.7416802  44.6340103  28.9683585  46.5755113
  44.1983362  30.8465034  47.5556943  43.2917748  31.0477042  46.9849357
  43.8326794  30.2000787  48.8676338  44.7387599  29.9989838  49.4391913
  43.1865738  30.8695269  49.4355136  43.3079518  29.2636815  48.6781040
  44.8479220  32.1773251  47.8180795  45.0550249  32.6742829  46.8703238
  44.1787235  32.7975913  48.4143550  45.7814772  32.0259908  48.3599942
  47.1383666  28.4443353  46.4594259  48.0283424  28.6191536  45.6214989
  46.7266683  27.2115146  46.8124864  45.8605046  26.7972255  47.9322283
  44.8154014  26.8143817  47.6230921  45.9990445  27.4677548  48.7803416
  46.3662865  25.3785201  48.2199049  45.6210529  24.7862761  48.7509163
  47.2940197  25.3917829  48.7919509  46.6002568  24.8488405  46.8264472
  45.6559237  24.6193969  46.3327980  47.2486468  23.9732556  46.7941799
  47.2862031  26.0387023  46.1202797  48.3635559  26.0381792  46.2858365
  47.0020239  26.0405979  44.6171688  47.8302075  25.6011677  43.8237666
  45.8411881  26.5661792  44.2371301  45.1979976  26.9179452  44.9318718
  45.4372554  26.6074001  42.8386262  46.3101160  26.5148521  42.1923690
  44.4828918  25.4469757  42.5412805  43.6616108  25.5174751  43.2544611
  44.1006702  25.5978185  41.5316999  45.1197643  24.0781712  42.6397558
  45.4528575  23.9101849  43.6639289  44.3850641  23.3201499  42.3682389
  46.3168505  23.9887092  41.6939624  45.9639988  24.1233354  40.6714799
  47.0183886  24.7847613  41.9434514  47.0119241  22.7069750  41.7842902
  47.7194261  22.6134277  42.4989854  46.7802486  21.6724860  40.9815673
  45.8693337  21.7656662  40.0174586  45.3530562  22.6252144  39.8960730
  45.6978643  20.9764694  39.4109388  47.4535122  20.5354289  41.1540955
  48.1371586  20.4642250  41.8941345  47.2770400  19.7500837  40.5440223
  44.7704886  27.9205514  42.4455018  44.2124236  28.6256749  43.2850787
  44.7918519  28.2036176  41.1457107  45.2695709  27.5732945  40.5175573
  44.1920292  29.4117446  40.5894319  44.6028919  30.2970676  41.0747094
  44.4710172  29.5016507  39.0988459  44.0575181  28.6263724  38.5978404
  44.0085504  30.4026446  38.6958141  45.5474454  29.5405348  38.9318441
  42.6933121  29.4040587  40.8575942  42.0787996  30.4609641  41.0213114
  42.1241510  28.2064920  40.9525450  42.6787389  27.3781315  40.7902166
  40.7044855  28.0433578  41.2270810  40.1200603  28.6835964  40.5662930
  40.2911436  26.5939027  40.9923355  40.8853864  25.9067126  41.5946183
  39.2331133  26.4409703  41.2051352  40.5360973  26.0882273  39.2595444
  40.0967074  24.8425432  39.4148053  40.3777140  28.4734231  42.6505374
  39.2927028  28.9881759  42.9096250  41.3337585  28.2806682  43.5576445
  42.1940424  27.8259692  43.2869790  41.1612695  28.6572973  44.9549197
  40.1538451  28.3980324  45.2804606  42.1709416  27.9251673  45.8524013
  43.1785600  28.2196528  45.5590028  41.9817866  28.2491121  46.8758172
  42.0395988  26.4034687  45.7670757  40.8968965  25.8906862  45.7925204
  43.0811138  25.7276441  45.6539091  41.3081022  30.1642547  45.1124170
  40.5328462  30.7924516  45.8313689  42.3179135  30.7327854  44.4534732
  42.9976997  30.1637008  43.9696005  42.5312505  32.1737049  44.5007110
  42.5608250  32.4974610  45.5410987  43.8522315  32.5765483  43.8227373
  43.8839991  33.6635089  43.7478594  44.6782823  32.2314105  44.4445250
  43.9668433  32.0116887  42.5309158  44.7993978  32.2815300  42.1364053
  41.3205805  32.8928681  43.8835233  40.9005144  33.9223694  44.3867234
  40.7180817  32.2821107  42.8584186  41.0962504  31.4124463  42.5108967
  39.5377776  32.8351175  42.2013441  39.7190716  33.8655160  41.8955493
  39.1708852  32.0208010  40.9713362  38.9774791  30.9884590  41.2628223
  38.2771975  32.4410578  40.5100262  39.9945176  32.0481344  40.2579067
  38.3684114  32.8378947  43.1792525  37.5410108  33.7557803  43.1752076
  38.2953111  31.7896976  43.9976156  38.9825157  31.0551792  43.9063371
  37.2443742  31.6361818  45.0069711  36.2638894  31.7527299  44.5452730
  37.3244999  30.2397415  45.6437124  37.3286598  29.5192182  44.8258321
  38.2740862  30.1893273  46.1764828  36.1821551  29.9112418  46.6063106
  36.1215505  30.7252253  47.3287085  35.2669862  29.8820906  46.0149433
  36.3540434  28.5716844  47.3541912  37.3412857  27.8251324  47.0990172
  35.4831198  28.2722045  48.2141521  37.3858409  32.7103596  46.0875090
  36.3943150  33.2402596  46.5796547  38.6202251  33.0106489  46.4660100
  39.4102583  32.5131612  46.0807142  38.8721965  34.0341578  47.4713990
  38.2593602  33.8556697  48.3549559  40.3536654  34.0572127  47.8960111
  40.9754908  34.1990231  47.0120868  40.6043067  35.1941822  48.8812279
  39.9831283  35.0528033  49.7656771  41.6546710  35.1983546  49.1724632
  40.3544996  36.1451053  48.4106502  40.7388144  32.7450108  48.5294820
  40.5874506  31.9370918  47.8136204  41.7878133  32.7771213  48.8238795
  40.1201196  32.5704564  49.4097368  38.4743949  35.4119750  46.9336335
  37.8709852  36.2153353  47.6469630  38.8104643  35.6592223  45.6685125
  39.3254821  34.9594592  45.1535487  38.4905009  36.9162821  44.9980523
  38.9587727  37.7488234  45.5231197  39.0122410  36.8910394  43.5542763
  40.0846170  36.7041649  43.6107278  38.5234900  36.0526461  43.0579708
  38.7613695  38.1629764  42.7636039  37.7014635  38.4114520  42.8180097
  39.3466932  38.9728310  43.1990734  39.1577321  37.9753849  41.3286801
  40.0024771  37.2876284  41.2900045  38.3138947  37.5442334  40.7900278
  39.5460423  39.2842579  40.6889892  40.4321423  39.6535352  41.2052853
  39.7915618  39.0817423  39.6464889  38.4788447  40.3024037  40.7540764
  38.2514925  40.4905185  41.7200079  38.7972025  41.1525680  40.3113927
  37.6578160  39.9605930  40.2753528  36.9798482  37.1369019  45.0061317
  36.5147535  38.2097962  45.3670206  36.2276252  36.0994884  44.6451348
  36.6695580  35.2411674  44.3483521  34.7674960  36.1732185  44.6168575
  34.4674442  37.0144982  43.9921042  34.1710560  34.9028578  44.0388507
  34.4552120  34.0526171  44.6588880  33.0846568  34.9884679  44.0163139
  34.5443539  34.7538736  43.0256618  34.2144687  36.4142224  46.0129445
  33.2886587  37.2042769  46.1937639  34.8063653  35.7445455  46.9965670
  35.5598711  35.1091099  46.7762266  34.3976149  35.8717285  48.3809501
  33.3425858  35.6186375  48.4856301  35.2190667  34.9176370  49.2545103
  35.1596030  33.9028363  48.8611366  36.2604874  35.2388398  49.2737901
  34.7629108  34.8516837  50.6849815  33.7669661  34.0524133  51.1960813
  33.2496270  33.4007842  50.4919225  33.6373544  34.2621769  52.5493510
  32.9767085  33.7960771  53.1546588  34.5478198  35.2062428  52.9431278
  34.7915914  35.7460341  54.2091238  34.1931316  35.3937849  55.0492816
  35.7766615  36.6923912  54.3136760  35.9946741  37.1359587  55.2851791
  36.5203630  37.1095576  53.1882996  37.3014048  37.8639938  53.2826351
  36.2793078  36.5704080  51.9234035  36.8780578  36.9250233  51.0844475
  35.2777764  35.6019891  51.7896400  34.5960218  37.3046086  48.8479610
  33.7106579  37.8859578  49.4743140  35.7714947  37.8564576  48.5533288
  36.4757650  37.2999474  48.0902964  36.1094008  39.2240702  48.9321064
  35.9667284  39.3536758  50.0049279  37.5734804  39.5371954  48.5903981
  37.6855556  39.1901972  47.5632026  37.6862726  40.6208944  48.6216164
  38.6501498  38.8850040  49.4712610  38.4468398  37.8155372  49.5260936
  40.0344239  39.1051329  48.9172163  40.2386476  40.1744314  48.8625150
  40.7670694  38.6286887  49.5686242  40.1000823  38.6717023  47.9192548
  38.5676736  39.4330837  50.8589769  37.5833140  39.2207083  51.2761488
  39.3330449  38.9677181  51.4800590  38.7264146  40.5111824  50.8344124
  35.1913680  40.2458752  48.2648348  35.0595635  41.3695248  48.7449192
  34.5355518  39.8311894  47.1833812  34.7613361  38.9300303  46.7871071
  33.6469298  40.7038533  46.4431991  33.8607347  41.7455793  46.6823509
  33.8447599  40.4966006  44.9390852  33.6835556  39.4444619  44.7043160
  33.1169358  41.1040244  44.4011182  35.2673381  40.9047260  44.5144396
  35.3152925  41.9832414  44.6647916  35.9650641  40.4125714  45.1919803
  35.6428185  40.5742790  43.0671372  34.9805967  39.7269755  42.4211579
  36.6401575  41.1638822  42.5876241  32.1816694  40.6416158  46.8687581
  31.3618971  41.4326112  46.3998544  31.8543556  39.7092626  47.7600366
  32.5540987  39.0646520  48.0990587  30.4996768  39.5997064  48.2883168
  29.7746073  39.8062237  47.5010914  30.2170939  38.1832236  48.8651438
  29.1848131  38.1504532  49.2136015  30.4326098  37.1001692  47.8109807
  31.4648634  37.1320185  47.4623579  30.2267604  36.1224021  48.2465226
  29.7602978  37.2717164  46.9703447  31.0820592  37.9374573  49.9808279
  30.9062186  37.0628657  50.3354684  30.4034321  40.6374674  49.4171050
  31.4133912  40.9946235  50.0293763  29.1951366  41.1366516  49.6651657
  28.4123266  40.8718247  49.0844984  28.9778554  42.1395122  50.7059191
  29.6705109  42.9687797  50.5622428  27.5396510  42.6859301  50.6577773
  27.4021046  43.3479305  51.5127251  27.4266598  43.2559924  49.7356266
  26.5649255  41.6521241  50.6977923  25.6868431  42.0388257  50.6656517
  29.3037768  41.5901115  52.0853053  29.8770951  42.2902451  52.9257742
  28.9661893  40.3265987  52.3050669  28.4142674  39.8211620  51.6268227
  29.2448033  39.6851891  53.5876627  29.0099510  40.3780727  54.3956577
  28.3996214  38.4017195  53.7752431  28.9996639  37.7354247  54.3950007
  27.5098497  38.7064319  54.3262027  27.9779513  37.6632320  52.4835393
  28.8648928  37.6243106  51.8511466  27.6817911  36.6502044  52.7558690
  26.8328421  38.3426630  51.7176199  25.6957063  38.4190020  52.2539031
  27.0683591  38.7826597  50.5647437  30.7446227  39.4298342  53.8029778
  31.2614525  39.6396554  54.9007806  31.4489044  39.0591542  52.7345052
  31.0026705  38.9426319  51.8359524  32.8809939  38.8116172  52.8315937
  33.0677153  38.1112788  53.6456947  33.2330092  38.3806467  51.8943376
  33.6409461  40.0940667  53.1005655  34.5631552  40.1262819  53.9118099
  33.2414506  41.1586164  52.4151566  32.5032927  41.0648158  51.7322043
  33.8688457  42.4592563  52.5772091  34.9459223  42.3767073  52.4316379
  33.3106317  43.4363724  51.5456213  33.6065458  43.0794184  50.5591538
  32.2250115  43.5236894  51.5892611  33.8596425  44.8283692  51.6815815
  35.1814716  45.1009893  51.3384095  35.7934701  44.3059378  50.9124390
  35.7210694  46.3626541  51.5318239  36.7580663  46.5602665  51.2603696
  34.9384851  47.3770279  52.0726895  35.3586536  48.3702781  52.2308419
  33.6070471  47.1184656  52.4141166  32.9864063  47.9096585  52.8347340
  33.0759799  45.8502618  52.2161779  32.0379823  45.6468934  52.4794311
  33.6597958  43.0063229  53.9889882  34.5761811  43.5741151  54.5876457
  32.4480185  42.8368019  54.5166382  31.7081976  42.4393711  53.9555561
  32.1225843  43.3003539  55.8672533  32.3205798  44.3721666  55.8779502
  30.6461402  43.0752654  56.1645021  30.4342172  42.0060668  56.1662314
  30.4034637  43.4948195  57.1408129  30.0424147  43.5635640  55.3995320
  32.9869985  42.6619648  56.9587704  33.4244882  43.3628209  57.8842397
  33.2623466  41.3552900  56.8573732  32.8235262  40.7634958  56.1664929
  34.0885074  40.7233030  57.8896139  33.8683074  41.0958912  58.8900084
  34.0277410  39.1268769  57.9145144  33.8678916  38.8071719  58.9442407
  32.9130207  38.5896557  57.0404977  33.0724433  38.9085839  56.0104636
  32.9073928  37.5006359  57.0863743  31.9560528  38.9726743  57.3949140
  35.3738836  38.4840803  57.5716347  36.1240328  38.8025088  58.2955005
  35.2773121  37.3988140  57.6027893  35.6802893  38.7925208  56.5720944
  35.5179497  41.2435883  57.8144408  36.1497868  41.4589880  58.8522586
  36.0011405  41.4978611  56.5946515  35.4279202  41.3125186  55.7839937
  37.3575615  42.0193097  56.3836530  38.0716065  41.4390842  56.9680992
  37.7593022  41.9720200  54.8763311  37.0090392  42.5090334  54.2959671
  39.1290094  42.6149865  54.6570955  39.8799236  42.0781918  55.2368195
  39.3869708  42.5698767  53.5990210  39.0980243  43.6559304  54.9789261
  37.7821285  40.5284800  54.3883145  36.7817752  40.1202841  54.5324334
  38.0159879  40.5483741  53.3238834  38.7934321  39.6567097  55.1122969
  38.5599319  39.6359531  56.1767906  38.7530193  38.6436143  54.7121673
  39.7941450  40.0640448  54.9682423  37.4360363  43.4607260  56.8818474
  38.3789458  43.8500862  57.5709122  36.4259743  44.2449099  56.5268271
  35.7042790  43.8896454  55.9160552  36.3572304  45.6368548  56.9374131
  37.2466762  46.1735938  56.6074182  35.1258315  46.2940565  56.3048276
  35.2953438  46.3131892  55.2282595  34.2745955  45.6504176  56.5266975
  34.8387014  47.6956477  56.7945301  34.5224136  47.6436941  57.8363380
  35.7526613  48.2851308  56.7218040  33.7394065  48.3552124  55.9606962
  34.0812599  48.4395407  54.9291323  32.8463077  47.7313945  55.9971003
  33.4127514  49.7409343  56.5018082  32.7617340  50.2501851  55.7912165
  32.8948805  49.6319885  57.4547194  34.6547498  50.5422113  56.7001720
  35.1345484  50.6436452  55.8172201  34.4128687  51.4549207  57.0587176
  35.2579468  50.0707135  57.3589150  36.3295403  45.7501712  58.4670884
  36.9884682  46.6198226  59.0436147  35.5859632  44.8570706  59.1197349
  35.0194827  44.1918994  58.6130333  35.5090000  44.8628817  60.5801516
  35.2071769  45.8512820  60.9266581  34.4838293  43.8342234  61.0781336
  33.4953477  44.2385454  60.8601265  34.6392081  42.9238382  60.4992068
  34.5850750  43.5129582  62.5692697  35.4720399  42.8958149  62.7125463
  34.7078167  44.4544576  63.1046317  33.3644141  42.7791575  63.1070965
  33.0288385  41.6878871  62.5795420  32.7389398  43.3065285  64.0641000
  36.8876818  44.6008580  61.1876161  37.3372191  45.3499296  62.0661160
  37.5799333  43.5790153  60.6914515  37.1781756  42.9777749  59.9863273
  38.9204599  43.2597766  61.1965021  38.8497655  43.1123600  62.2741708
  39.4274144  41.9803630  60.5654141  39.5121978  42.1152763  59.4871237
  40.4056153  41.7337764  60.9782315  38.7299314  41.1696117  60.7758876
  39.9206099  44.3931258  60.9456228  40.7548479  44.7082892  61.8026975
  39.8443584  44.9871370  59.7536956  39.1723635  44.6531556  59.0776937
  40.7394311  46.0725245  59.3620775  41.7792810  45.7699510  59.4856109
  40.5013399  46.4210389  57.8829739  40.6373958  45.5166017  57.2900310
  39.4958911  46.8109665  57.7244518  41.4507201  47.4438608  57.3300945
  42.5986922  47.0450386  56.6433283  42.7753673  45.9815401  56.4825279
  43.5174728  47.9886717  56.1631179  44.4112353  47.6651755  55.6296017
  43.2826888  49.3500828  56.3715173  43.9905661  50.0942445  56.0065064
  42.1284518  49.7566933  57.0546651  41.9376644  50.8172900  57.2184785
  41.2238228  48.8044305  57.5249627  40.3245419  49.1211733  58.0532313
  40.5462068  47.3120479  60.2462743  41.5131209  47.8433744  60.8041509
  39.2930115  47.7391869  60.3926812  38.5588064  47.2721861  59.8798923
  38.9461379  48.9285355  61.1737405  39.6176174  49.7499184  60.9236517
  37.5101115  49.3574990  60.8596200  36.8358730  48.5598495  61.1714805
  37.3026812  50.2559086  61.4409399  37.2998007  49.6496998  59.3847640
  38.3014877  49.7987655  58.6514622  36.1335407  49.7200795  58.9490918
  39.1292352  48.8381193  62.6853708  39.2073556  49.8679539  63.3608965
  39.2123078  47.6137655  63.2062649  39.1130858  46.8095751  62.6033287
  39.3750733  47.3882415  64.6405422  38.7350595  48.0724620  65.1976093
  38.9859448  45.9445703  65.0044963  38.8302518  45.8990773  66.0823597
  38.0530560  45.7078432  64.4928532  39.9829855  45.0039093  64.6301598
  39.6979685  44.1207118  64.8757760  40.7887484  47.6762011  65.1353219
  41.0874253  47.5033402  66.3205135  41.6503092  48.1385961  64.2370854
  41.3667148  48.2338604  63.2724102  43.0361898  48.4234794  64.5804650
  43.3113578  47.9048167  65.4988172  43.9710874  47.9537695  63.4511785
  45.0002833  48.2028796  63.7096361  43.8439335  46.4320968  63.2627586
  42.8150403  46.1822503  63.0038086  44.5085727  46.1078226  62.4620089
  44.1179747  45.9266455  64.1887829  43.6173498  48.6202351  62.2276643
  44.2004214  48.3272315  61.5235501  43.3424733  49.8810890  64.9202867
  44.3541237  50.1649942  65.5629300  42.4653405  50.7954313  64.5110848
  41.6656044  50.5164931  63.9608894  42.6638620  52.2182281  64.7718596
  42.9742701  52.3721763  65.8053227  43.7595178  52.7657851  63.8431440
  44.7123477  52.3378507  64.1547313  43.5328726  52.4449517  62.8263855
  43.8412521  54.1840785  63.8849223  44.5354222  54.4821733  63.2925819
  41.3849929  53.0523736  64.6233231  40.4369216  52.6594214  63.9354639
  41.3858570  54.2175736  65.2652087  42.1941774  54.4653031  65.8177913
  40.2608714  55.1470455  65.2292589  39.3538776  54.6451647  65.5662711
  40.5304879  56.3454025  66.1518058  41.4371871  56.8190692  65.7754609
  39.6865677  57.0229757  66.0222168  40.7038215  56.0214778  67.6492069
  40.6254457  56.9615565  68.1952932  39.8818646  55.3656068  67.9361249
  42.0477285  55.3403248  67.9879127  42.0497121  55.1142597  69.0542099
  42.1054931  54.4117242  67.4200539  43.2301406  56.1566403  67.6773332
  43.8183668  55.8210613  66.9280161  43.5520740  57.3090309  68.2738386
  42.7782263  57.8223995  69.2290392  41.9373430  57.3376529  69.5083888
  43.0359763  58.6939947  69.6694781  44.6842531  57.9310781  67.9424389
  45.2919354  57.5286802  67.2432263  44.9288119  58.8017162  68.3921933
  39.9925906  55.6667764  63.8166573  38.8488009  55.7596696  63.3841832
  41.0586889  55.9815378  63.0921930  41.9796656  55.9366252  63.5043631
  40.9305145  56.5198585  61.7409561  39.9574637  56.9943028  61.6137794
  42.0201032  57.5674046  61.5029040  42.9949300  57.0833197  61.4439665
  41.8287338  58.1115743  60.5780489  42.1166370  58.6028438  62.6024515
  43.1667651  58.5706377  63.5181261  43.9223400  57.7902959  63.4271689
  43.2607057  59.5202321  64.5432361  44.0864656  59.4826775  65.2537366
  42.2944999  60.5140505  64.6522191  42.3597953  61.2580899  65.4460967
  41.2408038  60.5568323  63.7428235  40.4822732  61.3351151  63.8265342
  41.1549399  59.6046657  62.7247242  40.3290800  59.6394727  62.0142006
  40.9187774  55.4789630  60.6124647  40.5890314  55.8060289  59.4658674
  41.2461303  54.2298975  60.9427140  41.5322016  54.0204350  61.8884349
  41.2592483  53.1492145  59.9597018  41.8115877  53.4761247  59.0787080
  41.9476766  51.9108841  60.5366157  41.4008031  51.5662506  61.4142586
  41.9640217  51.1207565  59.7859284  42.9694216  52.1620536  60.8213089
  39.8426702  52.8063801  59.5104669  39.0702915  52.2179661  60.2674280
  39.5123044  53.1815259  58.2755296  40.1943527  53.6870651  57.7284103
  38.1933251  52.9399272  57.6889492  37.6751054  52.1630582  58.2511077
  37.3443641  54.2249628  57.7276243  38.0460189  55.0588723  57.7469808
  36.7774185  54.2493613  56.7969915  36.3746304  54.3407253  58.9239456
  35.7909938  55.2526388  58.7979178  35.7087688  53.4780021  58.9029908
  37.1069345  54.3861754  60.2646453  37.8067212  53.5514265  60.3045437
  37.6578651  55.3247077  60.3257362  36.2027974  54.2965293  61.4151585
  35.2908784  54.7171912  61.3077035  36.4917379  53.6874636  62.5679228
  37.6710663  53.0913015  62.7479955  38.3558566  53.0988336  62.0056306
  37.8739929  52.6350180  63.6259054  35.5974419  53.6973127  63.5551759
  34.7110331  54.1635711  63.4248583  35.8099047  53.2384786  64.4294925
  38.3161908  52.4362369  56.2455982  38.3952725  53.2320931  55.3023740
  38.3005810  51.1093171  56.0881332  38.2470839  50.5319787  56.9151264
  38.4226269  50.4481655  54.7859391  39.3962728  50.6704733  54.3492561
  38.2897267  48.9249431  54.9399131  38.8664267  48.6829429  55.8326349
  37.2383916  48.6958217  55.1139761  38.8038716  48.0955972  53.7603159
  38.2274873  48.3396642  52.8679521  40.2798340  48.4088481  53.5146534
  40.8569639  48.1645880  54.4064813  40.6424835  47.8167974  52.6743784
  40.3939446  49.4688323  53.2876895  38.6132095  46.6119161  54.0311447
  37.5536003  46.4018558  54.1767557  38.9839002  46.0366154  53.1827823
  39.1652261  46.3319489  54.9283598  37.3971896  50.9634183  53.7902499
  36.2008591  50.8014651  53.9934972  37.8885839  51.5294408  52.6883665
  38.8916342  51.5606713  52.5742871  37.0502565  52.1241581  51.6406359
  36.1623157  52.5709570  52.0878843  37.8170258  53.2079614  50.8940181
  38.7206094  52.7304588  50.5150362  37.1838033  53.5022045  50.0570293
  38.1901952  54.4230293  51.6892757  37.2771456  54.9229372  52.0125921
  38.7792550  54.1430049  52.5626009  38.9977406  55.3870922  50.8508944
  38.8024572  55.4914092  49.6312714  39.9253388  56.0814267  51.4880530
  40.4962825  56.7413124  50.9794514  40.0586202  55.9486765  52.4803810
  36.5227455  51.1971069  50.5748491  35.3985839  51.3647007  50.0939645
  37.3804159  50.2937603  50.1247197  38.2966596  50.2151489  50.5423524
  37.0288014  49.3728052  49.0546548  36.1112811  48.8428640  49.3104245
  36.8045931  50.1369661  47.7370142  36.5953873  49.3972879  46.9642216
  35.9309676  50.7738838  47.8756297  38.0154644  51.0069114  47.3057743
  38.0558157  51.8728203  47.9665878  38.9179028  50.4094372  47.4351253
  37.9197072  51.4803324  45.8468798  36.8800925  51.7350193  45.6408824
  38.5396711  52.3702238  45.7380806  38.3921207  50.3987184  44.8493165
  39.3994941  50.1006881  45.1399663  37.7196134  49.5463212  44.9455052
  38.4016914  50.8714819  43.4188927  39.0251231  51.6610605  43.3294593
  38.7181189  50.1230222  42.8190747  37.4682482  51.1472883  43.1492377
  38.1729521  48.4013601  48.8377411  39.2723599  48.5504959  49.4122828
  37.9417256  47.4764754  47.9172399  37.0532850  47.4264554  47.4394630
  38.9344561  46.4684004  47.6246944  39.9169863  46.7940852  47.9662542
  38.5693953  45.1666112  48.3510300  37.6297873  45.4443029  48.8286525
  38.3771415  44.4241754  47.5764800  39.5196437  44.5771452  49.3984109
  40.3376837  44.0835712  48.8737241  40.0753082  45.6266785  50.3159461
  39.2578339  46.1204088  50.8413651  40.7429296  45.1601819  51.0403517
  40.6293246  46.3628264  49.7334924  38.7977727  43.4931299  50.1906477
  38.4710181  42.7040701  49.5133623  39.4749347  43.0747391  50.9352966
  37.9304709  43.9243736  50.6905630  39.0993413  46.2114497  46.1400163
  38.1407915  45.9178909  45.4355090  40.3159454  46.4127486  45.6555504
  41.0530519  46.7899085  46.2339308  40.6165124  46.1098424  44.2689974
  39.6825938  45.9562347  43.7283496  41.3941330  47.2384523  43.5903621
  40.9099128  48.2141466  43.6309893  42.3587361  47.2908263  44.0952362
  41.6797660  46.9629648  42.1510531  40.6934227  46.6020770  41.2571644
  41.2372432  46.3252080  40.0847511  40.6199976  46.0138220  39.2420497
  42.5412467  46.4993923  40.1848698  43.2161136  46.3613957  39.4462147
  42.8438638  46.9026380  41.4652017  43.8784761  47.1038837  41.7430122
  41.4446377  44.8140975  44.3298470  42.4680798  44.7477097  44.9904284
  40.9961991  43.7914840  43.6272977  40.1633043  43.8814374  43.0631221
  41.6677477  42.4956117  43.6685064  42.5721967  42.5413992  44.2751157
  40.7245417  41.4579321  44.2757194  39.7254588  41.6137547  43.8687145
  41.1775544  40.0733080  43.9628672  42.1764480  39.9165758  44.3699867
  40.4879096  39.3556977  44.4073047  41.2001640  39.9333386  42.8821276
  40.6798190  41.6360719  45.6941795  40.0881146  40.9858743  46.0798337
  42.1168409  42.0040722  42.3152166  41.3061323  41.8948793  41.3953441
  43.3820595  41.6004910  42.2299283  44.0013096  41.6809885  43.0237474
  43.9309352  41.1118073  40.9731233  43.1390951  40.9713204  40.2373570
  44.9203384  42.1408090  40.4341709  44.4042436  43.0950943  40.3288855
  45.7349667  42.2460162  41.1506988  45.4426744  41.7479355  39.1824711
  46.0601141  42.4134411  38.8702687  44.5873371  39.7276549  41.1177835
  45.3074277  39.4602489  42.0729214  44.3214027  38.8633517  40.1503756
  43.6898358  39.1396657  39.4122203  44.8503978  37.5091313  40.1339999
  45.3574881  37.2779413  41.0707548  43.6979523  36.4826725  39.8994778
  42.8680837  37.0056177  39.4241392  44.1378752  35.3188746  39.0164577
  44.9674703  34.7951277  39.4913912  43.3041845  34.6300070  38.8803626
  44.4567176  35.6988435  38.0458588  43.1890773  35.9446953  41.2381879
  44.0552541  35.6471153  41.8291910  42.6645285  36.7543708  41.7455080
  42.2574234  34.7624507  41.0784110  42.7814470  33.9521489  40.5715480
  41.9282604  34.4232515  42.0605998  41.3907220  35.0594041  40.4878627
  45.9346947  37.2879118  39.0899386  45.8678419  37.8127754  37.9860528
  46.9477138  36.5253627  39.4723119  46.9793954  36.1989549  40.4275886
  48.0296856  36.1382249  38.5726034  47.7917936  36.2007632  37.5107204
  49.2853389  36.9602139  38.8397172  49.5414795  36.8999621  39.8974798
  50.1099455  36.5689389  38.2438748  49.1037278  38.0003422  38.5690703
  48.2377460  34.6403464  38.8916578  49.0536193  34.2768431  39.7308604
  47.4083081  33.8054107  38.2741174  46.7194059  34.1557407  37.6239005
  47.4651053  32.3725230  38.5124213  46.8222507  31.8451450  37.8076450
  48.4884701  32.0114191  38.4103044  46.9824988  32.0954725  39.9231604
  45.9281698  32.6029945  40.3252561  47.7775363  31.3601861  40.7043104
  48.6144631  30.9379305  40.3283409  47.4030050  31.0484545  42.0829411
  46.3199821  30.9483299  42.1546038  48.0523921  29.7248914  42.5423342
  47.5112857  29.4215845  43.4386087  47.8641060  29.0066372  41.7443622
  49.5428509  29.7706047  42.8415199  50.0402662  30.3727943  42.0812262
  49.6956264  30.2241366  43.8208413  50.1325565  28.3509480  42.8370324
  49.4730082  27.6930383  43.4029386  50.1990583  27.9996727  41.8073321
  51.4647968  28.3045320  43.4343223  52.2537962  28.3831867  42.8087084
  51.6987710  28.0942174  44.7302377  50.6886660  27.8945739  45.5729289
  49.7390510  27.9023687  45.2290239  50.8761511  27.7361492  46.5526485
  52.9403690  28.1585029  45.2004130  53.7043446  28.3668592  44.5734927
  53.1141232  27.9986973  46.1824366  47.7252239  32.1945270  43.0533663
  47.4281475  32.1052779  44.2436668  48.3346191  33.2631103  42.5315367
  48.5481996  33.2648060  41.5443792  48.6614662  34.4582763  43.3155177
  48.9617968  34.1607462  44.3201951  49.8072511  35.2485636  42.6759960
  49.6551285  35.2829831  41.5972128  49.7802147  36.2610842  43.0787006
  51.1713708  34.6539291  42.9534076  51.2908086  33.4979428  43.3600674
  52.2172480  35.4446502  42.7185589  53.1527370  35.1023607  42.8852862
  52.0699990  36.3828779  42.3748332  47.4600612  35.4004710  43.3535897
  46.7229200  35.5299343  42.3764719  47.2973494  36.0846570  44.4772993
  47.9417040  35.9425241  45.2419592  46.2191386  37.0419964  44.6541511
  45.7642287  37.2703697  43.6903037  45.1498156  36.4697604  45.5731442
  44.8471603  35.5233917  45.1249420  45.6005929  36.2819575  46.5476337
  43.9259844  37.3662789  45.7432493  44.2428194  38.3446877  46.1044040
  43.2139957  37.5250525  44.4087126  42.8964327  36.5470425  44.0471203
  42.3413897  38.1657573  44.5358230  43.8931697  37.9763096  43.6853937
  42.9951102  36.7714530  46.7671786  43.5128205  36.6842325  47.7224106
  42.1236196  37.4155687  46.8843119  42.6743026  35.7834973  46.4368378
  46.7830337  38.3163026  45.2729533  47.3964359  38.2813006  46.3359936
  46.6084862  39.4295046  44.5700411  46.1393078  39.3773621  43.6771513
  47.0733327  40.7311301  45.0311220  47.7687854  40.6066687  45.8611546
  47.7938192  41.4642622  43.8942216  47.0619000  41.5274353  43.0889870
  48.0748404  42.4693456  44.2087599  49.0299229  40.7229391  43.3996219
  48.9460820  39.7496700  42.4061110  47.9875139  39.5565900  41.9244818
  50.0818960  39.0211090  42.0244586  50.0204283  38.2695134  41.2374215
  51.3024753  39.2831827  42.6439056  52.4531475  38.5789545  42.3386480
  52.3145201  37.9065789  41.6676091  51.3878854  40.2567562  43.6151804
  52.3445853  40.4720315  44.0910821  50.2641115  40.9569147  43.9836671
  50.3281369  41.7225729  44.7568220  45.8413231  41.4975724  45.4745918
  44.8722183  41.6082414  44.7339940  45.8701476  41.9801979  46.7083567
  46.6868183  41.8482618  47.2877886  44.7429412  42.7055701  47.2633548
  43.9559976  42.8067218  46.5159678  44.1816337  42.0245318  48.5004364
  44.8775894  42.1445427  49.3307035  42.8487231  42.6573418  48.8619220
  42.1520493  42.5373145  48.0322596  42.4436215  42.1707069  49.7491536
  42.9927549  43.7187002  49.0640914  44.0328682  40.5216605  48.2489574
  43.1463322  40.3753105  47.6319191  44.9147721  40.1885655  47.7017893
  43.8981507  39.7212893  49.5195014  43.0161412  40.0535236  50.0670226
  43.7961947  38.6640932  49.2744698  44.7845807  39.8667806  50.1368942
  45.1705014  44.1002880  47.6522031  46.0789724  44.2760393  48.4581919
  44.5181137  45.0953209  47.0554789  43.7992001  44.8989482  46.3737896
  44.8392726  46.4898537  47.3399016  45.8435317  46.5562092  47.7584227
  44.7844044  47.3366061  46.0577378  45.2463303  46.7319383  45.2772888
  43.7268458  47.4737853  45.8322345  45.4734798  48.7013846  46.1200567
  44.9223272  49.3460912  46.8046624  46.4912367  48.5684587  46.4869405
  45.5121961  49.3512246  44.7207372  45.8872597  48.6109791  44.0140102
  44.4941026  49.6295465  44.4484838  46.3632757  50.5471705  44.6460188
  47.3616030  50.3940903  44.6431083  45.9097402  51.8016208  44.5496968
  44.6034189  52.0395843  44.5121709  43.9514499  51.2694801  44.5566216
  44.2681467  52.9895267  44.4393584  46.7620629  52.8207884  44.5259378
  47.7552851  52.6458862  44.5808833  46.4127565  53.7656537  44.4530448
  43.8621907  47.0468280  48.3660841  42.6804891  47.2131336  48.0862380
  44.3656376  47.2710055  49.5712964  45.3367311  47.0551560  49.7458978
  43.5770023  47.8293602  50.6586014  42.5364722  47.5211723  50.5565400
  44.1078310  47.3319209  52.0216788  45.1870543  47.4728369  52.0810003
  43.6247205  47.8869590  52.8258162  43.8476624  45.8679185  52.2899406
  44.7344648  44.8887106  51.8430321  45.6201490  45.1931456  51.2853738
  44.5000234  43.5249389  52.1020244  45.2034353  42.7706934  51.7492836
  43.3593471  43.1389185  52.8149436  43.1649554  42.0864773  53.0215333
  42.4620693  44.1197456  53.2649576  41.5695190  43.8295302  53.8192403
  42.7131318  45.4676153  53.0023785  42.0184272  46.2300950  53.3546712
  43.7036205  49.3530809  50.5862197  44.7930511  49.8792510  50.3808642
  42.5925669  50.0528029  50.7498967  41.7026993  49.5860657  50.8518343
  42.6093127  51.5175047  50.7205361  43.6281932  51.8690024  50.8831126
  42.1122075  52.0602913  49.3731864  42.7150812  51.6088656  48.5852414
  41.0718214  51.7586638  49.2518692  42.2142654  53.5763881  49.2840814
  41.4138905  54.0094907  49.8840172  43.1784143  53.8757637  49.6950475
  42.1027317  54.1141012  47.8621004  41.2755385  53.6522166  47.0650359
  42.9429146  55.1040063  47.5399100  42.9172454  55.5021277  46.6120405
  43.5990735  55.4487321  48.2260011  41.7695660  52.0844259  51.8608812
  40.6151441  51.7090841  52.0523821  42.3585616  52.9951571  52.6170596
  43.3132279  53.2740925  52.4412570  41.6648574  53.5877016  53.7481841
  40.6040699  53.7028576  53.5255448  41.8133828  52.6673193  54.9747425
  41.0919869  51.8559833  54.8776802  42.8233500  52.2573972  54.9692401
  41.5891212  53.3560409  56.1959870  41.6915896  52.7465338  56.9305625
  42.1943987  54.9733817  54.0722853  43.3394293  55.3053741  53.7528874
  41.3419683  55.7842530  54.6907028  40.4202185  55.4450207  54.9260705
  41.7136379  57.1289533  55.1167461  42.1860917  57.6642891  54.2931550
  40.4821903  57.8949937  55.5481526  39.9782017  57.2934206  56.3045947
  40.8246057  58.8280966  55.9955570  39.5289323  58.1964536  54.4343756
  39.6078070  57.4254102  53.6679739  38.5105004  58.2197471  54.8221331
  39.8658056  59.5256404  53.8398575  39.9192049  60.2635969  54.6402747
  40.8357386  59.4532265  53.3478355  38.8748471  59.9686089  52.8593733
  39.1859028  60.0484416  51.9017876  37.5913242  60.1973929  53.1318377
  37.1166890  60.0096946  54.3634857  37.7344916  59.6915172  55.0964135
  36.1414948  60.1865365  54.5579666  36.7962066  60.6906842  52.1883937
  37.1690864  60.8891865  51.2709748  35.8226155  60.8648659  52.3930395
  42.5918185  56.9251607  56.3253202  42.6249172  55.8316430  56.8860327
  43.2678682  57.9768497  56.7651895  43.2070990  58.8732982  56.3039015
  44.1591440  57.8481345  57.9076281  43.7833680  57.0970169  58.6024042
  45.5415074  57.4120158  57.4165548  46.2116723  57.3357823  58.2728064
  45.4535730  56.4372640  56.9367357  46.0664608  58.3535251  56.4855177
  46.9322416  58.0625797  56.1899264  44.2777050  59.1411273  58.7034339
  45.3603867  59.4817100  59.1903268  43.1601457  59.8453691  58.8659942
  42.2739476  59.5313033  58.4970567  43.1970677  61.1004710  59.5900410
  42.2041975  61.5497778  59.6108149  43.5412203  60.9336097  60.6107347
  44.1556082  62.0516665  58.8944915  44.1179209  62.1724688  57.6688115
  45.0463815  62.6769551  59.6601436  45.0129591  62.5545061  60.6621359
  46.0233775  63.6125292  59.1090530  45.6965059  63.9490576  58.1251817
  46.1737032  64.8408849  60.0241319  46.3192702  64.5106335  61.0526470
  47.0622803  65.3732226  59.6847981  44.9665202  65.7713190  59.9551416
  44.8636865  66.5286100  58.9699947  44.1057390  65.7243285  60.8609637
  47.3942749  62.9852734  58.8496220  48.3313086  63.6748002  58.4452923
  47.5056543  61.6801969  59.0794961  46.7091510  61.1685239  59.4314515
  48.7592915  60.9559862  58.8743679  49.6014661  61.6186166  59.0737721
  48.8371304  59.7617739  59.8342757  48.0053174  59.0845011  59.6406558
  49.7782444  59.2333459  59.6820634  48.7832111  60.1177915  60.8630825
  48.8825699  60.4687015  57.4377016  47.8693224  60.2091525  56.7811578
  50.1172722  60.3507969  56.9456460  50.9182344  60.6455825  57.4857018
  50.3420066  59.8495109  55.5847996  49.8180261  60.4842326  54.8701865
  51.8300792  59.8533987  55.2414957  52.1856629  60.8722888  55.3948663
  52.3187917  59.1876299  55.9528409  52.1577904  59.4114656  53.8290062
  51.3006940  59.5772252  53.1763114  53.0146959  59.9692834  53.4513104
  52.5582117  57.6473568  53.8483145  54.2234706  57.6828084  54.5418663
  54.1949955  58.1339134  55.5337294  54.6081440  56.6656975  54.6167825
  54.8747300  58.2702637  53.8946732  49.7212657  58.4511377  55.5615165
  49.1119676  58.0418283  54.5675166  49.8442206  57.7497792  56.6916348
  50.3906454  58.1143866  57.4588249  49.2063640  56.4578279  56.8549191
  48.9802902  56.4555874  57.9212141  48.2846642  56.5927277  56.2889060
  49.8222517  55.1332969  56.4811694  49.1408274  54.1237665  56.5727507
  51.0921029  55.1005058  56.1144982  51.6395905  55.9424602  56.0074025
  51.7010804  53.8296278  55.7474263  51.1228153  53.3639772  54.9493798
  53.1373660  54.0338983  55.2560180  53.1487671  54.9496657  54.6649686
  53.7645637  54.1635029  56.1380189  53.6793693  52.8699871  54.4082626
  54.7673519  52.9352959  54.4196448  53.3665586  51.9422696  54.8874199
  53.0956394  52.8784825  52.6782666  51.3820229  52.2432817  52.8549455
  50.8119001  52.9096524  53.5022545  50.9082410  52.1969664  51.8743914
  51.4071804  51.2455958  53.2932275  51.6615337  52.7873341  56.8813323
  51.1691664  51.6738629  56.6830261  52.1376724  53.1611301  58.0703409
  52.5441082  54.0786281  58.1848257  52.1508678  52.2486519  59.2146479
  52.6876097  51.3374275  58.9506831  52.8460497  52.8954910  60.4189395
  52.4200958  53.8871218  60.5716840  52.6650752  52.2829022  61.3021627
  54.3497578  53.0365028  60.2243250  54.9527680  52.3857695  59.3502135
  54.9711094  53.8876968  61.0453371  55.9686068  54.0244597  60.9653710
  54.4405331  54.3905744  61.7422616  50.7501216  51.7964080  59.6129323
  50.5151245  50.6090735  59.8585605  49.8226970  52.7439029  59.6595282
  50.0723465  53.7061643  59.4811258  48.4477228  52.4451329  60.0273738
  48.4218188  51.9814075  61.0134705  47.6138508  53.7257523  60.0677279
  48.1001937  54.4053324  60.7675427  47.6372413  54.1574648  59.0671394
  46.1694926  53.5093314  60.4925164  45.7560988  52.6975483  59.8940061
  46.1626010  53.2243370  61.5445775  45.1509302  54.9919701  60.2701754
  46.1665492  56.2476455  61.1907465  47.1536692  56.3223451  60.7345524
  45.6722666  57.2181470  61.1470162  46.2700732  55.9397636  62.2312236
  47.7960375  51.4366133  59.0830267  47.1868567  50.4679318  59.5351385
  47.9228300  51.6697704  57.7765458  48.3883538  52.5096215  57.4634371
  47.3437387  50.7844858  56.7719556  46.2983102  50.6079817  57.0249867
  47.4348784  51.4041416  55.3462410  48.4844888  51.5467466  55.0891766
  46.7805253  50.4863903  54.3191657  45.7307073  50.3436761  54.5753208
  46.8544800  50.9368260  53.3293479  47.2879899  49.5217265  54.3176308
  46.7244462  52.7648578  55.3068636  47.1359557  53.3650186  56.1183855
  46.9715974  53.2280798  54.3516458  45.2273095  52.6831462  55.4524751
  44.9793658  52.2204218  56.4077290  44.8027300  53.6863250  55.4142161
  44.8150077  52.0834806  54.6409899  48.0159259  49.4076566  56.7969906
  47.3728141  48.3952282  56.5247152  49.3064295  49.3737123  57.1291400
  49.8196913  50.2277183  57.2944743  50.0278026  48.1114001  57.1950113
  49.8632333  47.5499849  56.2753217  51.5286475  48.3433318  57.3635530
  51.6888317  49.0563559  58.1722785  52.0079596  47.3969521  57.6140034
  52.0884160  48.8534594  56.1672411  53.0302890  48.9936259  56.2890128
  49.4731792  47.2605862  58.3364291  49.2264898  46.0638962  58.1681724
  49.2214922  47.9046760  59.4723341  49.4316277  48.8909023  59.5297805
  48.6732190  47.2442582  60.6524691  49.3119478  46.4138450  60.9533655
  48.5985697  48.2442797  61.8035813  49.3522588  49.0087518  61.6148106
  47.6073389  48.6966234  61.7728133  48.8310653  47.6339815  63.1655571
  47.9442901  47.0692851  63.4533913  49.6866460  46.9611415  63.1075048
  49.1045587  48.7146713  64.2053575  49.5789497  49.5606387  63.7079731
  48.1532445  49.0318387  64.6325642  50.0252848  48.1971655  65.3291267
  50.9849358  47.9481763  64.8761644  50.1605164  49.0112741  66.0411933
  49.4800950  46.9893919  66.0454318  49.3551185  46.2347673  65.3858696
  50.1285721  46.7036179  66.7650920  48.5910640  47.2200213  66.4655900
  47.2818785  46.6945045  60.3434393  46.9832208  45.5334587  60.6436682
  46.4409909  47.5278488  59.7319638  46.7140668  48.4741921  59.5084389
  45.1032404  47.0934070  59.3696960  44.5698622  46.8083390  60.2765273
  44.5839217  47.9223001  58.8887140  45.1304680  45.9059658  58.4168438
  44.3675978  44.9484388  58.5701277  46.0333254  45.9673366  57.4387251
  46.5845359  46.8076913  57.3383747  46.1916369  44.9137739  56.4431699
  45.2365867  44.7044640  55.9613322  47.2129583  45.3415255  55.3551588
  48.1471625  45.6113005  55.8476873  47.4715146  44.2222420  54.3549399
  46.5377865  43.9522249  53.8616425  48.1913937  44.5597136  53.6092951
  47.8706499  43.3526793  54.8771011  46.7047989  46.4785410  54.6576319
  47.3329654  46.7472869  53.9832561  46.5852515  43.5727388  57.0825550
  46.0217396  42.5408307  56.7405272  47.5325617  43.6018838  58.0145244
  47.9989500  44.4722465  58.2267745  47.9745573  42.3885804  58.7099355
  48.3422123  41.6604874  57.9868798  49.1032442  42.7172775  59.6901956
  48.8203026  43.6295087  60.2154360  49.1645498  41.8933881  60.4012146
  50.4651239  42.9157463  59.0213497  50.8507161  41.9255569  58.7785646
  50.3057176  43.4785686  58.1016107  51.4767814  43.6553524  59.9036359
  51.3426138  43.6064656  61.1535655  52.4091326  44.2977253  59.3429074
  46.8213250  41.7080215  59.4429409  46.6688683  40.4903283  59.3642446
  45.9712476  42.5131306  60.0816380  46.1345923  43.5094575  60.0542438
  44.8136474  42.0196751  60.8308378  45.1299030  41.2423628  61.5264434
  44.1605398  43.1566863  61.6295499  44.8123706  44.0240945  61.5255362
  43.2031462  43.3628364  61.1510109  43.9343479  42.8618169  63.1220452
  44.9113765  42.6610308  63.5615915  43.5144053  43.7635601  63.5677016
  42.9924492  41.6668719  63.3931914  43.1487347  40.9350229  62.6006822
  43.2770730  41.2309924  64.3508436  41.5117305  42.0678646  63.4339599
  41.4441611  42.9690339  64.0434096  41.2178402  42.2993628  62.4101746
  40.5867123  41.0065831  63.9972963  40.8586003  40.7922375  64.9461021
  39.6365902  41.3490613  63.9885301  40.6488530  40.1716005  63.4324586
  43.7665113  41.4282649  59.9097156  43.1744798  40.3860354  60.2078222
  43.5087723  42.1251177  58.8086998  43.9668154  43.0138246  58.6655362
  42.5146974  41.6933741  57.8306822  41.5842113  41.4949588  58.3625903
  42.2609777  42.7990832  56.7921666  43.1815132  43.0025783  56.2450795
  41.4890543  42.4732449  56.0949838  41.9322981  43.7061652  57.2993858
  42.9313213  40.3901256  57.1565561  42.0912697  39.5485960  56.8463687
  44.2328385  40.2200891  56.9453937  44.8894301  40.9641276  57.1335257
  44.7310987  38.9996165  56.3241231  44.0909326  38.7339241  55.4828774
  46.1600233  39.1811727  55.8123216  46.7304473  39.4913817  56.6878135
  46.5407963  38.2258931  55.4510008  46.3015708  40.2366533  54.7106637
  45.9086430  41.1888316  55.0671255  47.7589555  40.3973612  54.3498468
  48.1524908  39.4456408  53.9928357  47.8591003  41.1482857  53.5661478
  48.3188182  40.7143322  55.2297238  45.4745104  39.8724671  53.4844302
  44.4230235  39.8015269  53.7627143  45.5968471  40.6413564  52.7215775
  45.8109970  38.9135453  53.0902921  44.6085368  37.8126923  57.2846493
  44.4213294  36.6845353  56.8395097  44.6873412  38.0813574  58.5934407
  44.8316187  39.0345997  58.8944598  44.5280991  37.0409362  59.6227307
  45.2487770  36.2452202  59.4341608  44.7562838  37.5843231  61.0442230
  44.1582004  38.4888850  61.1545101  44.4063978  36.8298808  61.7488482
  46.1184896  37.8829548  61.3089483  46.2046146  38.2168110  62.2048961
  43.0956452  36.5433350  59.5493697  42.8515183  35.3372909  59.5002513
  42.1503727  37.4778845  59.5257669  42.3945294  38.4556953  59.5918947
  40.7412406  37.1214439  59.4652034  40.4781716  36.5007878  60.3217545
  39.8733226  38.3828291  59.4899396  40.1303151  38.9246625  60.4001432
  40.1564843  38.9775497  58.6214772  38.3688535  38.1233094  59.4600874
  37.8556739  39.0834332  59.5140288  38.1254334  37.6343049  58.5168360
  37.9196234  37.2412430  60.6203875  36.8343728  37.1466580  60.5831866
  38.3737974  36.2573341  60.5031329  38.3324915  37.8349127  61.9646681
  39.3749828  38.1454756  61.8949331  37.7067535  38.7058088  62.1598374
  38.1795670  36.8528807  63.0788509  38.7596394  36.0460002  62.8984083
  38.4620561  37.2830606  63.9478993  37.2135626  36.5653022  63.1439142
  40.4321103  36.2919564  58.2241333  39.6748137  35.3236955  58.2871802
  41.0337638  36.6825385  57.1023099  41.6231622  37.5024898  57.1220288
  40.8437457  35.9991025  55.8300909  39.7803923  35.9020435  55.6110969
  41.5061741  36.8064650  54.7014425  41.0286386  37.7828659  54.7832975
  42.5636757  36.8978596  54.9493085  41.3612683  36.2864025  53.2688771
  41.8371241  35.3083707  53.1973510  39.8988989  36.1647691  52.8927881
  39.4224444  37.1425578  52.9636337  39.8155627  35.7937208  51.8712799
  39.4049522  35.4703835  53.5724540  42.0953864  37.2110647  52.3047898
  43.1523150  37.2470113  52.5688149  41.9881741  36.8351128  51.2873091
  41.6713831  38.2132342  52.3678491  41.4275437  34.5892773  55.8926440
  40.8974134  33.6589248  55.2943797  42.5206754  34.4489478  56.6288163
  42.9297367  35.2700077  57.0514615  43.2030942  33.1719352  56.7976462
  43.4060794  32.7094229  55.8317381  44.5346254  33.4281862  57.5065122
  45.0419592  34.2897660  57.0724709  44.3455212  33.6132271  58.5639145
  45.4959104  32.2867400  57.4376145  45.1089585  30.9726208  57.5896994
  46.1692885  30.1895925  57.4989689  46.0708845  29.1082085  57.5939648
  47.2317601  30.9491898  57.2922081  48.1820249  30.6251203  57.1823182
  46.8377031  32.2653069  57.2494074  47.5761364  33.0502728  57.0861712
  42.3280658  32.1532748  57.5717845  42.4369113  30.9375323  57.3684993
  41.4452018  32.6583752  58.4337322  41.4038132  33.6551973  58.5909966
  40.5494764  31.7980988  59.2029567  41.1228385  31.0008400  59.6759615
  39.8318091  32.5996038  60.2950008  39.3523626  33.4501797  59.8104898
  39.0695354  31.9502225  60.7255153  40.7625381  33.1024943  61.4070461
  41.0305728  32.2428106  62.0212141  41.6584161  33.5027004  60.9323497
  40.1304309  34.1759395  62.2846211  38.9175256  34.0850595  62.5855305
  40.8563509  35.1203151  62.6730241  39.5301956  31.1451519  58.2716699
  39.0989078  30.0091630  58.5075218  39.1481653  31.8675402  57.2172331
  39.4928985  32.8091863  57.0965641  38.1958550  31.3496393  56.2417928
  37.4762935  30.6970714  56.7362477  37.4384934  32.4977518  55.5795389
  38.1749382  33.2329277  55.2550937  36.9311112  32.0835783  54.7082619
  36.4304982  33.1610352  56.4782195  36.8253401  34.1171498  57.4101098
  37.8824941  34.3727267  57.4822582  35.9001333  34.7427605  58.2399584
  36.2264742  35.4861002  58.9673163  34.5603813  34.4131086  58.1415296
  33.6532461  35.0407130  58.9601336  34.0597828  35.6793678  59.5504281
  34.1350950  33.4600580  57.2203048  33.0804021  33.1968626  57.1399832
  35.0760523  32.8382693  56.3929692  34.7547482  32.0897964  55.6686406
  38.8831667  30.5040197  55.1695336  38.2516510  29.6500573  54.5397962
  40.1720133  30.7683255  54.9490320  40.6311261  31.5058258  55.4642096
  40.9451833  30.0386659  53.9462105  40.4182635  29.1252389  53.6703376
  41.1435491  30.8917963  52.6831739  41.6434556  31.8258314  52.9396331
  41.7430524  30.3479880  51.9531270  39.8604814  31.2657905  51.9933712
  39.2589472  32.4942673  52.2386041  39.7301899  33.1850465  52.9377853
  38.0795733  32.8450054  51.6099469  37.6226877  33.8133189  51.8142143
  37.4743964  31.9637946  50.7164960  36.5438416  32.2376011  50.2193061
  38.0629825  30.7298437  50.4600658  37.5997104  30.0313522  49.7632238
  39.2560266  30.3880243  51.1024919  39.7232322  29.4228610  50.9068430
  42.2914767  29.6512833  54.5358669  43.3174098  30.2501887  54.2139669
  42.3030693  28.6214371  55.4007528  41.1375204  27.7877704  55.7434503
  40.4647441  27.7122295  54.8891869  40.6024791  28.2188061  56.5896406
  41.7822297  26.4859513  56.0817016  42.0804179  25.9410124  55.1860318
  41.1266005  25.8592455  56.6862606  42.9778609  26.9339035  56.8752542
  43.7503556  26.1701683  56.9650283  42.6792778  27.2665619  57.8693801
  43.5093633  28.1185381  56.0662386  43.8426785  28.9094723  56.7381182
  44.6573993  27.7220733  55.1379203  45.8184103  27.7672529  55.5345992
  44.3386283  27.3594210  53.9010765  43.3695616  27.2577573  53.6352314
  45.3659348  26.9666253  52.9387446  46.1812767  26.4527318  53.4478912
  44.7641900  26.0186750  51.8984637  44.0850805  26.5928476  51.2681976
  45.5768026  25.6225658  51.2894824  43.9999072  24.8579146  52.5483684
  44.7192012  24.3269328  53.1718868  43.2156486  25.2790010  53.1774342
  43.3834496  23.8901923  51.5495918  42.7237589  24.3518448  50.5774503
  43.5458298  22.6596797  51.7554836  46.0805920  28.1639947  52.2891219
  47.0611393  27.9943326  51.5566659  45.6139035  29.3700258  52.6035560
  44.7930030  29.4454604  53.1871067  46.2029754  30.5999653  52.0723375
  46.4214403  30.4783977  51.0113975  45.2264389  31.7760716  52.2414154
  44.3639820  31.5589946  51.6112210  44.9198105  31.7795394  53.2873920
  45.7962014  33.1508453  51.8715914  46.6562828  33.3425858  52.5131492
  46.1206718  33.1122491  50.8317205  44.5919602  34.4935060  52.0712676
  45.1505051  35.2000206  53.6181889  46.1791374  35.5441780  53.5106231
  44.5121460  36.0422768  53.8850272  45.1008351  34.4444406  54.4022380
  47.5483414  30.9486740  52.7094668  47.6880842  30.9789242  53.9304753
  48.5321465  31.2169494  51.8607774  48.3568172  31.1603993  50.8677209
  49.8604309  31.5850305  52.3033175  49.9851469  31.3568437  53.3618429
  50.8935690  30.7925260  51.5088421  50.8271806  29.7610255  51.8548169
  50.5888281  30.8449537  50.4636224  52.3273647  31.2806566  51.6435098
  52.3677313  32.3354058  51.3715253  52.6506725  31.1599593  52.6774374
  53.2857775  30.5053887  50.7380433  52.9537447  30.1826705  49.5824793
  54.4797984  30.1983720  51.2577469  55.1519073  29.6870691  50.7037248
  54.7036063  30.4793109  52.2017197  50.0758349  33.0796798  52.0831794
  49.8691255  33.5907929  50.9790397  50.4588658  33.7812908  53.1426997
  50.5547262  33.3352593  54.0437913  50.7370257  35.2019057  53.0453321
  50.1242114  35.6249079  52.2493253  50.4483259  35.9342736  54.3529753
  51.0872943  35.5346766  55.1404663  50.7264584  37.4210749  54.1797898
  50.0874865  37.8215080  53.3927264  50.5194512  37.9413139  55.1149904
  51.7718463  37.5663785  53.9074844  48.9876073  35.7171531  54.7412968
  48.3756296  36.0701844  53.9112649  48.8420989  34.6444588  54.8687867
  48.5815853  36.4324068  56.0040890  48.7263859  37.5052671  55.8771894
  47.5314279  36.2304799  56.2150257  49.1928573  36.0795428  56.8347113
  52.2021995  35.3547755  52.6862169  53.0788663  35.2281557  53.5425765
  52.4670306  35.6095463  51.4080767  51.7144636  35.6296498  50.7347728
  53.8357868  35.7638674  50.9216526  54.4642429  34.9843714  51.3523822
  53.8961642  35.6542410  49.4027442  52.8965105  35.9461184  49.0808756
  54.6166730  36.4022952  49.0720148  54.2531178  34.2963434  48.7905772
  53.4936721  33.5590948  49.0509760  54.3136266  34.4508670  47.2654454
  55.0732271  35.1876681  47.0042364  54.5669112  33.4923871  46.8123846
  53.3437935  34.7824918  46.8945692  55.6085541  33.7707939  49.3337008
  55.5474011  33.6571881  50.4160378  55.8328193  32.8055660  48.8796727
  56.3988069  34.4799754  49.0874059  54.5471985  37.0404543  51.3493772
  55.7405394  37.0103058  51.6683358  53.8335421  38.1608515  51.3590545
  52.8612713  38.1531703  51.0856869  54.4379780  39.4397280  51.7386966
  54.9902316  39.3359668  52.6726928  55.3959566  39.9108970  50.6581427
  54.8556313  40.0282324  49.7187914  55.8302713  40.8674458  50.9488065
  56.1903743  39.1755972  50.5303386  53.3550951  40.4832762  51.9549847
  52.4319078  40.6034454  51.1572701  53.4749935  41.2451928  53.0363817
  54.2062247  41.0565540  53.7070648  52.4861960  42.2684640  53.3603534
  51.4681291  41.8829966  53.3050928  52.7100689  42.8723734  54.7653706
  52.7626665  42.0624782  55.4929712  53.9877612  43.6665976  54.8060569
  53.9357250  44.4770152  54.0789968  54.1258712  44.0827556  55.8039740
  54.8283945  43.0160688  54.5647075  51.5113882  43.7232188  55.1700294
  50.6146634  43.1037865  55.1870698  51.6812727  44.1430006  56.1615041
  51.3800412  44.5320242  54.4512230  52.4426785  43.3347304  52.2557670
  51.4783173  44.0869734  52.1356344  53.5033036  43.3734032  51.4558565
  54.3039307  42.7926383  51.6603256  53.5700374  44.2579408  50.3059244
  52.5649641  44.6174699  50.0853214  54.4775193  45.4594742  50.5341459
  54.0562815  46.1045368  51.3052180  55.4685845  45.1259002  50.8417468
  54.5794118  46.1878383  49.3066656  55.1491297  46.9500731  49.4332331
  54.0675618  43.4860227  49.0902328  55.2157250  43.0425765  49.0527128
  53.1799176  43.3194101  48.1211068  52.2374935  43.6631382  48.2385254
  53.5173353  42.6530665  46.8828348  54.4540156  42.1131404  47.0214314
  52.7238128  41.9464640  46.6396591  53.6778489  43.6387840  45.7250307
  53.4623906  43.2854253  44.5758348  54.0748111  44.8720512  46.0326976
  54.1758315  45.1078494  47.0095771  54.2637172  45.9364861  45.0352414
  54.5386450  46.8588316  45.5468982  55.3614865  45.5900478  44.0291374
  55.2673083  44.5324596  43.7826889  55.2333174  46.1859673  43.1255044
  56.7521131  45.8372421  44.5791617  56.9041387  46.2507501  45.7180938
  57.7808689  45.6038544  43.7520960  58.7267693  45.7539662  44.0727809
  57.6054149  45.2789546  42.8120126  52.9824082  46.3201328  44.2954614
  53.0218133  46.8245396  43.1774775  51.8442957  46.0249655  44.9026823
  51.8400476  45.5437764  45.7906791  50.5759498  46.3499729  44.2941973
  50.7139841  46.5926585  43.2405611  49.6427899  45.1601249  44.3989595
  50.1966859  44.2403637  44.2109760  49.3168920  45.1812886  45.4388839
  48.4380298  45.2148480  43.4938177  48.5806662  45.3193119  42.1114552
  49.5765336  45.4402329  41.6851621  47.4744757  45.2709233  41.2821489
  47.5854941  45.3730840  40.2026398  46.2060892  45.1215558  41.8414728
  45.0771139  45.0301658  41.0353340  45.2800818  45.0810755  40.0984179
  46.0411673  45.0297282  43.2042220  45.0481891  44.9199453  43.6401606
  47.1507690  45.0780602  44.0205915  47.0350057  45.0091142  45.1022316
  49.9498702  47.5734620  44.9702593  48.8132569  47.9202939  44.6855879
  50.6901807  48.2129291  45.8746591  51.5797279  47.8289438  46.1598967
  50.1818358  49.3929630  46.5844284  49.1877507  49.1760552  46.9753823
  51.0968903  49.7876754  47.7582864  51.8271076  50.5304547  47.4371000
  50.5063354  50.1914367  48.5806743  52.0922460  48.3531880  48.4826144
  52.7139097  49.0714032  49.4135276  49.9105333  50.5978427  45.6342195
  48.7780889  51.0664850  45.5818558  50.9014662  51.1164161  44.8973920
  50.6435072  51.8848176  44.2948013  52.2920026  50.6687044  44.8920283
  52.4081624  49.7329312  45.4387774  52.7785602  50.4554295  43.4366296
  52.5631198  51.3633653  42.8733017  54.2445801  50.1574538  43.3611560
  54.4607326  49.2493295  43.9239063  54.5340880  50.0165302  42.3197988
  54.8072398  50.9893608  43.7847661  52.0454021  49.3787663  42.8487031
  52.3440487  49.2433619  41.9464415  53.0922622  51.7732644  45.5816266
  52.9134270  52.9509112  45.2862896  54.0015786  51.3901793  46.4705982
  54.0865079  50.4109234  46.7028572  54.8034366  52.3535255  47.2240801
  54.3774085  53.3530511  47.1372012  54.8163891  51.9517285  48.7102215
  53.8118862  51.6443464  49.0010640  55.4932649  51.1010197  48.7891761
  55.2985437  53.0798656  49.6434329  54.8958661  54.2650190  49.4646645
  56.0665282  52.7636953  50.5878365  56.2301478  52.5933643  46.7246579
  57.0389517  51.6613068  46.6292477  56.5232895  53.8578400  46.4095356
  55.7506780  54.5071897  46.3706013  57.8356127  54.3145435  45.9569974
  57.7789919  55.3565270  45.6420949  58.8515427  54.2021458  47.0911869
  58.9330781  53.1504923  47.3659161  59.8126584  54.5550162  46.7172361
  58.4560270  55.0109793  48.3061728  58.5954222  56.0646500  48.0644126
  57.4011473  54.8205663  48.5038439  59.2741499  54.6616567  49.5406713
  59.2357447  53.5856752  49.7106353  60.3092253  54.9685356  49.3905262
  58.6992243  55.3885560  50.7528479  58.6566877  56.4529753  50.5219737
  57.6902842  55.0143287  50.9263215  59.5169174  55.1802821  51.9661314
  60.4517450  55.5273743  51.8057441  59.1016997  55.6770723  52.7413049
  59.5561064  54.1940689  52.1804833  58.4247269  53.7381090  44.6765565
  59.6431087  53.7301347  44.4952499  57.5595469  53.2355054  43.8070421
  56.5716014  53.2368576  44.0169496  57.9886900  52.7194641  42.5209509
  59.0059162  53.0582762  42.3245934  57.9653682  51.1791687  42.4760931
  57.0845825  50.8662604  43.0368107  57.8462618  50.9015574  41.4287891
  59.1987071  50.4931534  43.0452356  59.3562576  49.5620297  42.5009127
  60.0563077  51.1494613  42.8973057  59.0422587  50.1963120  44.5102909
  59.9726562  49.7697702  44.8851529  58.8309085  51.1262947  45.0380813
  57.9155881  49.2222577  44.7388621  56.9828465  49.6548643  44.3769985
  58.1201362  48.2976381  44.1991048  57.7959744  48.9320646  46.1881693
  57.6060075  49.7886430  46.6884548  57.0404296  48.2791148  46.3395254
  58.6600226  48.5307988  46.5235878  56.9621164  53.2550336  41.5353085
  55.7976902  53.4351074  41.8839129  57.3948759  53.5879336  40.3114626
  58.7750088  53.7216955  39.8116636  59.3962456  52.9108939  40.1921445
  59.1983538  54.6779838  40.1188943  58.5625847  53.6383367  38.3119995
  58.4152883  52.6085723  37.9864412  59.3988434  54.0752953  37.7662524
  57.2847268  54.4761904  38.1224359  56.8195148  54.1184060  37.2039224
  57.3966571  55.5593624  38.0743765  56.4132999  54.0901209  39.3369035
  55.8680010  54.9346332  39.7582660  55.4268265  52.9556218  39.0091796
  55.8334544  51.7857400  38.8828969  54.1382946  53.2830123  38.9219209
  53.8310096  54.2310124  39.0861493  53.1333092  52.2735598  38.6278817
  53.5253142  51.5739724  37.8896346  52.8083496  51.5096158  39.8933242
  52.4061555  52.1952649  40.6391293  52.0697555  50.7387504  39.6734482
  53.7147670  51.0438539  40.2800705  51.8609177  52.8894219  38.0524595
  51.3450549  53.8853015  38.5836520  51.3465108  52.2810228  36.9893513
  51.8214702  51.4852231  36.5878344  50.1278690  52.7499536  36.3514460
  50.2630214  53.7844291  36.0357035  49.8226128  51.9002886  35.1207617
  49.6757159  50.8630966  35.4220160  48.9174305  52.2698198  34.6388987
  50.6563894  51.9603145  34.4212528  48.9446154  52.7062352  37.3080402
  48.0119209  53.5097787  37.1752394  48.9808527  51.7814212  38.2753560
  49.7102913  51.0829306  38.2867417  47.8816748  51.6471090  39.2208131
  46.9161629  51.6643972  38.7152568  47.9944520  50.3569206  40.0758739
  48.2193324  49.5214282  39.4129398  49.0947407  50.4796054  41.1327988
  48.8703013  51.3146584  41.7964359  49.1459899  49.5584628  41.7132904
  50.0525976  50.6531889  40.6424132  46.6356528  50.0419941  40.6995853
  46.4756699  50.7440333  41.5179051  45.8753604  50.1976021  39.9341827
  46.5396417  48.6181801  41.2272372  47.2993776  48.4619511  41.9930659
  45.5515982  48.4555818  41.6578543  46.6990705  47.9155196  40.4093432
  47.6573153  52.8933968  40.0988579  46.5303782  53.2182939  40.4140442
  48.7238328  53.5900536  40.4734121  49.6474821  53.2973855  40.1882514
  48.5993841  54.8048828  41.2939920  47.9309413  54.6049356  42.1314313
  49.9571334  55.2569572  41.8475139  50.6579544  55.3004829  41.0138145
  49.8532735  56.2492880  42.2863679  50.5135449  54.3177214  42.8996405
  49.8297060  53.4145843  43.3642454  51.7596758  54.5445323  43.2919957
  52.1819716  53.9500155  43.9907917  52.2808149  55.3107652  42.8902471
  48.0394231  55.9358713  40.4297040  47.2669540  56.7671883  40.9014546
  48.4414597  55.9488766  39.1646824  49.1267205  55.2668673  38.8724835
  48.0086113  56.9494711  38.1998270  48.1050763  57.9530438  38.6141162
  48.9054017  56.8442987  36.9483595  49.9495706  57.0463563  37.1870711
  48.8088742  55.8238088  36.5777075  48.5402208  57.7560357  35.8027682
  48.0120236  57.3786608  34.6016721  47.8904906  56.3085392  34.4338350
  47.7382619  58.4821714  33.8357708  47.3341402  58.4648403  32.9103061
  48.1029998  59.6110730  34.5248291  48.0255820  60.9675553  34.1547299
  47.6159602  61.2141981  33.1752015  48.4758214  61.9049706  35.0607271
  48.4323792  62.9647473  34.8095574  48.9939849  61.5208942  36.3116731
  49.3479396  62.2662751  37.0238689  49.0712946  60.1608469  36.6823005
  49.4775048  59.9133341  37.6630305  48.6196015  59.1911703  35.7759839
  46.5212733  56.8134558  37.8465136  45.7947451  57.8060136  37.7934501
  46.0676054  55.5711874  37.6823195  46.7246109  54.8061987  37.7392003
  44.6902172  55.2726927  37.3131792  44.2645212  56.0847172  36.7236893
  44.6289589  53.9461258  36.4918158  45.1301554  53.1623021  37.0597267
  43.1925354  53.5331089  36.2179935  42.6907900  54.3162876  35.6496772
  43.1834750  52.6062071  35.6445203  42.6714664  53.3801374  37.1630787
  45.3813994  54.1086606  35.1660988  44.7756873  54.7498488  34.5257151
  46.3258568  54.6055727  35.3878602  45.6510958  52.8173825  34.4650834
  44.7070230  52.3200785  34.2425633  46.1861403  53.0127274  33.5357465
  46.2571910  52.1758013  35.1047100  43.6883813  55.2138297  38.4697215
  42.5420274  55.6475576  38.3284279  44.1088056  54.6801461  39.6129188
  45.0223566  54.2549975  39.6820027  43.2033593  54.5672329  40.7556907
  42.1931328  54.8595282  40.4691509  43.1736106  53.1032004  41.2431708
  44.1966508  52.7699643  41.4176463  42.6121402  53.0547294  42.1761775
  42.5067195  52.1883763  40.1935293  41.4693798  52.5072248  40.0917318
  43.0339487  52.3639835  39.2558243  42.5504989  50.7009170  40.5303648
  42.8813740  50.3361668  41.6897926  42.2332667  49.8853622  39.6221103
  43.5042404  55.5445389  41.8908993  42.6963499  55.7163351  42.7866743
  44.6517921  56.2068132  41.8190038  45.2805007  56.0634752  41.0416500
  45.0352501  57.1486796  42.8455060  45.7647066  57.8427397  42.4280458
  44.1498950  57.6999410  43.1622970  45.6440197  56.4587888  44.0501799
  45.5377656  55.2376320  44.2112487  46.3165115  57.2479522  44.8738169
  46.3975092  58.2278702  44.6429504  46.9407453  56.7761789  46.0903481
  46.2742710  56.0686209  46.5835751  48.2811461  56.0747307  45.8085913
  48.1168761  55.3267563  45.0329310  48.9869424  56.8228118  45.4475841
  48.8482321  55.4000898  47.0527610  49.1163487  56.1800914  47.7653702
  48.0669008  54.7714436  47.4798760  50.0713538  54.5506584  46.7478401
  49.8955824  53.9572350  45.8505932  50.9388223  55.1925123  46.5941480
  50.3495661  53.6468384  47.8590252  49.7378308  52.8513180  47.9731590
  51.3759548  53.7774764  48.6837809  52.2421671  54.7672388  48.5174091
  52.1165277  55.4220050  47.7587287  53.0237193  54.8619380  49.1501080
  51.5084563  52.9527860  49.7104386  50.8244623  52.2251190  49.8612795
  52.2929510  53.0549252  50.3383194  47.1714618  57.9963558  46.9553130
  47.7765400  58.9624331  46.5093969  46.7464174  57.9332917  48.2090762
  46.3191195  57.0995451  48.5864121  46.8912172  59.0857556  49.0784289
  46.7437212  58.8215648  50.1255904  47.8644353  59.5615911  48.9579031
  45.8019805  60.0684963  48.6558249  44.6399328  59.6876198  48.5111767
  46.1957693  61.2870884  48.3280191  47.1606503  61.5602304  48.4484241
  45.2339643  62.3060806  47.9186818  44.2145892  61.9389530  48.0378077
  45.4152395  63.5564905  48.8071948  46.4692007  63.6552024  49.0670425
  45.0953973  64.4360395  48.2484510  44.5855803  63.4353328  50.0840015
  43.5863061  63.7980385  49.8431768  44.5376162  62.3736568  50.3261702
  45.1235216  64.1956662  51.2667430  45.6616796  65.0644581  50.8876843
  44.2742129  64.5272018  51.8641192  46.0666275  63.3496863  52.1413738
  46.8478995  62.9758093  51.4796105  46.5043995  64.0311640  52.8707866
  45.4233033  62.1969595  52.8569938  45.0179663  61.5651457  52.1812624
  46.1196367  61.7072024  53.4004620  44.6996164  62.5432241  53.4705712
  45.2467046  62.6744582  46.4413163  46.2927934  62.9473533  45.8788792
  44.0896420  62.5903021  45.7994206  43.2707093  62.2242334  46.2635781
  43.9745106  62.9791392  44.3904382  44.9546475  62.9269795  43.9164021
  43.0186769  62.0482640  43.6409709  42.0177266  62.1295609  44.0647499
  42.9894921  62.3220546  42.5863207  43.4825248  60.7036531  43.7707851
  42.8874786  60.1133076  43.3027979  43.4872889  64.4312421  44.4020175
  42.4806070  64.7594363  45.0328932  44.2214638  65.3024343  43.7226387
  45.0401164  65.0011499  43.2135858  43.9021615  66.7189561  43.7366764
  42.8915369  66.9296473  44.0864569  44.9177755  67.4571747  44.6690966
  45.9119802  67.3789711  44.2291643  44.5538189  68.9161973  44.8358978
  43.5598575  68.9952105  45.2762371  45.2797153  69.3998471  45.4895474
  44.5592985  69.4061759  43.8622487  44.9894017  66.7514605  46.0376167
  45.3154778  65.7206779  45.8988228  45.6992995  67.2732773  46.6793737
  44.0041468  66.7606779  46.5037591  43.9142886  67.3601894  42.3571291
  44.6133523  66.9125890  41.4518773  43.1074459  68.4033052  42.2028952
  42.5064380  68.6881737  42.9629865  43.0433327  69.1473007  40.9598665
  43.9076431  68.9596280  40.3228065  41.7738378  68.8320851  40.1667411
  41.7048677  67.7537018  40.0238006  40.5399517  69.3251485  40.9116052
  40.6079860  70.4035951  41.0545222  39.6472173  69.0916486  40.3314299
  40.4804799  68.8335193  41.8826178  41.8686379  69.4324377  38.7705221
  42.7292789  69.0111565  38.2509826  40.9603892  69.2028694  38.2133126
  41.9842035  70.5136327  38.8464359  43.0817910  70.6284237  41.3146139
  42.5084557  71.0643806  42.3070997  43.7957642  71.3913719  40.5082502
  44.2714858  70.9814693  39.7171952  43.9254741  72.8154246  40.7236666
  43.1497825  73.1582496  41.4084094  45.2892791  73.1403683  41.3291222
  45.5618125  72.4367122  42.1156925  46.0740911  73.1611200  40.5729876
  45.2904065  74.7701847  42.0948083  46.5572224  74.7333979  42.4981971
  43.7775233  73.5087682  39.3772037  44.0876775  72.9226369  38.3358471
  43.2910548  74.7471813  39.4006616  43.0226448  75.1596158  40.2826782
  43.0854074  75.5264461  38.1792933  43.8474311  75.2743036  37.4418360
  41.7182251  75.2167084  37.5905820  41.6213006  75.7757417  36.6598905
  41.6809119  74.1483572  37.3776654  40.5814016  75.5857654  38.5217449
  40.6980120  75.0184901  39.4451634  40.6680228  76.6508177  38.7368254
  39.2276973  75.3027586  37.9268854  39.1365372  75.2184006  36.6838300
  38.2510563  75.1534159  38.6994125  43.2059892  77.0353468  38.4259428
  43.0590121  77.5042229  39.5536617  43.4709185  77.7769735  37.3554087
  43.5783510  77.3199783  36.4611419  43.6313061  79.2298224  37.4155328
  42.8132072  79.6800544  37.9777645  44.9523895  79.5862505  38.1035813
  45.7818172  79.1500001  37.5469528  45.0659849  80.6698874  38.1340356
  44.9509024  79.1928897  39.1201266  43.6178366  79.8217746  36.0143015
  43.9579471  79.1447063  35.0392932  43.1779271  81.0734261  35.9132364
  42.8194265  81.5602907  36.7222725  43.1599961  81.7607175  34.6301471
  43.5664720  81.1079590  33.8576299  41.7410963  82.1986127  34.2094249
  41.3045405  82.8141374  34.9959665  41.8139207  83.0121256  32.9013239
  42.2499759  82.3970665  32.1141396  40.8102306  83.3194348  32.6076101
  42.4331041  83.8956897  33.0563343  40.8369507  80.9670812  34.0122837
  40.7740382  80.4086398  34.9462469  39.8395523  81.2916807  33.7157517
  41.2565969  80.3282709  33.2351612  44.0740661  82.9695910  34.7350815
  43.9167718  83.8069432  35.6233240  45.0745385  83.0107613  33.8658859
  45.1794671  82.2698744  33.1875231  46.0351890  84.1025064  33.8486514
  46.0098378  84.6502027  34.7907158  47.4627052  83.5751686  33.5993059
  47.5708524  83.3162105  32.5460512  48.4779142  84.6363388  33.9643011
  48.3706828  84.8954997  35.0175996  49.4832103  84.2551223  33.7849846
  48.3121445  85.5238436  33.3536008  47.7258101  82.2874638  34.4053315
  47.0229548  81.5426007  34.0321371  48.7432755  81.9780710  34.1662922
  47.5755315  82.4149604  35.9185450  46.5581180  82.7238939  36.1583987
  47.7825435  81.4528228  36.3870922  48.2784377  83.1593664  36.2925535
  45.6618972  85.0722802  32.7201467  45.6400457  84.6868015  31.5452281
  45.3077335  86.3286843  33.0700594  45.1641351  86.8792664  34.4299759
  46.1356438  87.1940782  34.8109806  44.7397485  86.1274303  35.0953611
  44.2218568  88.0468655  34.2002957  44.3053441  88.7885567  34.9946654
  43.1869833  87.7135965  34.1223869  44.7118443  88.5931342  32.8833918
  45.6651218  89.0852580  33.0762004  44.0531676  89.2757803  32.3465128
  44.9384278  87.3269425  32.0551053  44.0576094  86.9837975  31.5124187
  46.0930731  87.5160230  31.0798188  47.2606092  87.3654226  31.4627653
  45.7654789  87.8117578  29.8225385  44.7916501  87.8542142  29.5580495
  46.7749827  88.0266042  28.7869937  47.2883650  87.0835500  28.5994127
  46.1075847  88.4769388  27.5059162  45.5968281  89.4248205  27.6754688
  46.8609575  88.6047128  26.7286109  45.3834975  87.7261619  27.1894814
  47.8281170  89.0499507  29.2149495  49.0302456  88.8493660  29.0006725
  47.3569306  90.1285427  29.8421248  46.3581919  90.1891848  29.9797580
  48.1940946  91.2293135  30.3300582  48.6761179  91.7404510  29.4966968
  47.3075762  92.2420858  31.0830751  46.4180220  92.3783329  30.4680715
  47.0302152  91.7599624  32.0204800  47.9371797  93.6052289  31.3777717
  47.3001111  94.1310662  32.0889254  48.9187540  93.4410800  31.8223718
  48.0868363  94.4467949  30.1081263  48.8759741  94.0085361  29.4971519
  47.1442917  94.4138109  29.5616639  48.4382691  95.8973838  30.4287320
  47.5998320  96.3335580  30.9717566  49.3220628  95.8953303  31.0667004
  48.7124766  96.7084607  29.1983993  47.8935101  96.7108476  28.6073089
  48.9390419  97.6563158  29.4636142  49.4896330  96.3047069  28.6952992
  49.2721168  90.6827207  31.2650792  50.4577891  91.0196258  31.1442892
  48.8464965  89.8100019  32.1752409  47.8565777  89.6203667  32.2400373
  49.7352962  89.1866144  33.1495987  50.4164312  89.9040922  33.6071792
  48.9090523  88.5071345  34.2672682  48.2873914  87.7302826  33.8221411
  49.8238263  87.8863973  35.3159450  50.4455156  88.6627663  35.7618761
  49.2205857  87.4145684  36.0915601  50.4606815  87.1371897  34.8456207
  47.9583277  89.5231561  34.9060222  47.2810279  89.9148080  34.1470915
  47.3804198  89.0366771  35.6918086  48.5357338  90.3423413  35.3345530
  50.7232370  88.1865017  32.5160274  51.8470820  88.0496661  32.9942976
  50.3247433  87.5214994  31.4296984  49.3982988  87.6741269  31.0575360
  51.1949462  86.5504764  30.7544427  51.6486247  85.8651788  31.4704330
  50.4190154  85.7212274  29.6977831  50.0578239  86.3893270  28.9159373
  51.3212333  84.6723975  29.0870419  51.6824749  84.0035969  29.8682661
  50.7630905  84.0983154  28.3474428  52.1693431  85.1582532  28.6045944
  49.2008202  85.0718521  30.3193731  48.5406544  85.8426591  30.7170411
  48.6699571  84.4947283  29.5622654  49.5135391  84.4099752  31.1269786
  52.3396378  87.2828163  30.0586902  53.5044950  86.8764211  30.1383432
  51.9872699  88.3781390  29.3880464  51.0109179  88.6323568  29.3410419
  52.9518162  89.2032810  28.6702831  53.5351715  88.5855643  27.9874787
  52.2224334  90.2813440  27.8552409  51.5788120  90.8223345  28.5489122
  52.9854257  90.9559915  27.4669194  51.3865054  89.7436846  26.7020992
  52.0611014  89.2800522  25.9823312  50.7064352  88.9902284  27.0994786
  50.5764065  90.8483196  26.0063417  49.7225715  91.1097215  26.6314286
  51.2111670  91.7245311  25.8743116  50.0831253  90.4219989  24.6902926
  50.6667841  90.6529561  23.8990274  48.9357092  89.7776579  24.4686418
  48.1318063  89.4714881  25.4770158  48.3890530  89.7274090  26.4195808
  47.2656897  88.9836744  25.2981881  48.5967043  89.4234046  23.2332284
  49.2103423  89.6433253  22.4617472  47.7270223  88.9359250  23.0716252
  53.9696984  89.8737783  29.5947858  55.1736110  89.7800455  29.3655927
  53.4769354  90.4942998  30.6642912  52.4750616  90.5423839  30.7827657
  54.3225311  91.2288138  31.6050798  55.1648311  91.6794057  31.0801067
  53.5102274  92.3413213  32.2721022  52.5900318  91.8891327  32.6420545
  54.0982727  92.7076707  33.1135836  53.1684824  93.5040590  31.3467912
  54.1057546  93.9373841  30.9977196  52.6131370  93.1078093  30.4966873
  52.3398145  94.5777002  32.0378057  52.8062918  95.1410961  33.0618824
  51.2195250  94.8533376  31.5561550  55.0779568  90.4630808  32.6800118
  56.2294379  90.7795413  32.9765215  54.4181637  89.5062831  33.3174616
  53.4400590  89.3358687  33.1320715  55.0659540  88.7362449  34.3716071
  55.8532327  89.3170719  34.8521605  54.0487014  88.2959482  35.4496150
  53.2767361  87.6856479  34.9808907  54.7469675  87.4830861  36.5450074
  55.5188109  88.0929221  37.0145378  54.0165201  87.1811854  37.2956091
  55.2029642  86.5961302  36.1051462  53.3640122  89.5133784  36.0557540
  52.8393522  90.0626037  35.2739704  52.6502258  89.1898170  36.8133269
  54.1116099  90.1604872  36.5145008  55.8232714  87.5165403  33.8274517
  56.9709836  87.2706003  34.2122363  55.1961852  86.8062467  32.8865847
  54.2494980  87.0604910  32.6431867  55.7670592  85.6013694  32.2850878
  56.5007735  85.1555198  32.9566388  54.6560875  84.5812616  32.0280803
  53.9887534  85.1039181  31.3428106  55.0768565  83.7080919  31.5294539
  53.8660171  84.1314014  33.2697670  53.5880580  85.0111820  33.8501338
  52.6028893  83.3726186  32.8578667  52.8800860  82.4923909  32.2778149
  52.0576184  83.0627178  33.7493497  51.9698090  84.0214081  32.2525719
  54.7476829  83.2885198  34.1924967  55.6055929  83.8785815  34.5148584
  54.1711957  82.9800197  35.0646156  55.0954955  82.4054034  33.6565574
  56.6048473  85.8323762  31.0186783  57.3397676  84.9443655  30.5863600
  56.4991015  87.0313746  30.4412862  55.8145706  87.6744935  30.8126552
  57.2615592  87.4355436  29.2471691  56.9534682  88.4386389  28.9522474
  58.7828324  87.4427138  29.5045589  59.1028636  86.4042100  29.4197707
  59.2183790  88.0240881  28.6919070  59.2492105  88.0113300  30.8440429
  58.8831934  87.3482004  31.6278741  60.3391869  88.0042014  30.8424557
  58.7537793  89.4206269  31.1027016  59.1603591  90.0896244  30.3442596
  57.6650290  89.4340024  31.0522717  59.2061405  89.8870800  32.4900313
  58.8087682  89.1854981  33.2235016  60.2955021  89.8575298  32.5127750
  58.7389230  91.2673302  32.8177862  57.7295075  91.2948235  32.7971876
  59.0639582  91.5228247  33.7392929  59.1073767  91.9176472  32.1385009
  56.9983523  86.6027615  28.0046177  57.9137860  86.3562286  27.2114237
  55.7498837  86.2121053  27.8008950  55.0174474  86.4543788  28.4527693
  55.4027197  85.3997210  26.6428666  55.9642456  85.7074747  25.7607808
  55.6965256  83.8858045  26.9204420  56.7414871  83.7774418  27.2109815
  54.7958073  83.3535470  28.0434159  53.7506264  83.4611564  27.7533871
  55.0170237  82.3008013  28.2191687  54.9791862  83.9201475  28.9563434
  55.4988275  83.1146386  25.7247311  55.6814780  82.1898755  25.9065343
  53.9253510  85.6024755  26.3346045  53.2922868  86.4949634  26.8937073
  53.3860035  84.7902893  25.4301494  53.9614872  84.0992744  24.9703494
  51.9757051  84.8770012  25.0566746  51.4883535  85.6767051  25.6144032
  51.7990362  85.1492311  23.5485715  50.7354020  85.2313150  23.3248645
  52.5041764  86.4471996  23.1537905  53.5680039  86.3656942  23.3767872
  52.3696807  86.6243240  22.0867211  52.0782486  87.2782074  23.7160291
  52.3368322  84.0530511  22.7917049  52.2250012  84.2262242  21.8540988
  51.2285580  83.5896642  25.3953451  51.8312489  82.5309056  25.6010217
  49.9095416  83.6940539  25.4570909  49.4738816  84.5999060  25.3584419
  49.0637375  82.5522896  25.7490132  49.3806150  82.0627310  26.6698933
  47.5983553  83.0052359  25.9107057  47.3658104  83.6996863  25.1033880
  46.6353191  81.8398509  25.8658718  46.8669623  81.1451528  26.6732352
  45.6154091  82.2059237  25.9836570  46.7285646  81.3274164  24.9083663
  47.4556296  83.6847572  27.1641566  46.5452656  83.9698185  27.2717569
  49.2108071  81.4785382  24.6584420  49.2896233  80.2869746  24.9643391
  49.3370013  81.9135075  23.4057246  49.2701916  82.9030591  23.2148755
  49.4837614  81.0000215  22.2778852  48.6898822  80.2535162  22.3020709
  49.3969311  81.7661943  20.9489199  48.4412762  82.2904284  20.9501575
  50.2093702  82.4928558  20.9513386  49.4983854  80.8874036  19.6881646
  50.4569625  80.3719559  19.7477006  48.6906656  80.1561845  19.7198904
  49.4223689  81.6799472  18.3671143  48.3038031  82.0916002  17.9746027
  50.4791539  81.8730167  17.7130014  50.7821634  80.1820491  22.3351095
  50.7810771  78.9948484  22.0066309  51.8808195  80.8167565  22.7373473
  51.8383482  81.8039175  22.9466528  53.1741460  80.1468485  22.8216495
  53.3376530  79.5858850  21.9014949  54.2891495  81.1775012  22.9689048
  54.1442401  81.7411387  23.8905414  55.2526470  80.6689193  23.0023301
  54.2683845  81.8599136  22.1192099  53.2067163  79.1428462  23.9769541
  53.8051051  78.0680677  23.8634821  52.5827014  79.5249391  25.0896533
  52.1542625  80.4388772  25.1251011  52.4905526  78.6714397  26.2696971
  53.4896041  78.4196019  26.6254683  51.7395323  79.3987642  27.3919210
  50.8338906  79.8138279  26.9496152  51.4695053  78.6455892  28.1321324
  52.5242967  80.5023411  28.0603549  52.9686856  81.1479156  27.3028241
  51.8624619  81.0908904  28.6957182  53.8171857  79.7955738  29.0582201
  52.9261090  79.5670846  30.6165936  52.0776642  78.9018127  30.4564256
  53.5952509  79.1297525  31.3575999  52.5679220  80.5318688  30.9757521
  51.7373166  77.3866707  25.9163955  52.1704753  76.2877874  26.2595852
  50.6092283  77.5431445  25.2271316  50.2877746  78.4753514  25.0085977
  49.7825715  76.4193804  24.8284893  49.5542602  75.8235198  25.7121880
  48.4751648  76.8858644  24.1748423  48.7146284  77.5238517  23.3241193
  47.6481310  75.6852277  23.6965103  47.4078712  75.0469766  24.5468110
  46.7255602  76.0390652  23.2363332  48.2226122  75.1155110  22.9661039
  47.6498284  77.6853550  25.1839328  47.3613494  77.0049392  25.9851288
  48.2920368  78.4685736  25.5867188  46.4092433  78.3103382  24.5819182
  45.7662814  77.5276462  24.1793103  45.8700308  78.8626951  25.3514966
  46.6969690  78.9912793  23.7808982  50.5171121  75.4852372  23.8821587
  50.4313224  74.2623818  24.0245910  51.2537167  76.0560581  22.9328757
  51.2496894  77.0587672  22.8118075  51.9961165  75.2467949  21.9733839
  51.3390514  74.4802267  21.5626069  52.5341769  76.1007130  20.8192371
  53.1273536  76.8998658  21.2637541  53.1809389  75.4580193  20.2219566
  51.4441735  76.7110819  19.9184222  50.7127906  77.1367322  20.6054460
  51.8863688  77.5076340  19.3200351  50.7473468  75.6981468  18.9899422
  51.3070165  75.4099386  17.9013753  49.6264854  75.2270060  19.3217330
  53.1209230  74.4554824  22.6483290  53.4228732  73.3372413  22.2376649
  53.7452068  75.0378484  23.6680165  53.5179472  75.9846545  23.9363643
  54.8098564  74.3584555  24.3798687  55.4665144  73.8887249  23.6475761
  55.6522404  75.3343010  25.2487213  54.9755546  75.9750655  25.8140676
  56.5444806  74.5690541  26.2091476  57.2218095  73.9283695  25.6444798
  57.1242188  75.2728373  26.8063857  55.9290266  73.9556601  26.8672250
  56.5424014  76.1819426  24.3533248  55.9236232  76.7558945  23.6635460
  57.1309601  76.8643664  24.9665100  57.2115612  75.5339869  23.7872157
  54.2112294  73.2464130  25.2504853  54.6964140  72.1170968  25.2247426
  53.1289865  73.5519543  25.9648079  52.7588288  74.4916488  25.9572567
  52.4866167  72.5652503  26.8166942  53.1935998  72.2154113  27.5689486
  51.2776597  73.1650409  27.5259229  51.5578254  74.1455912  27.9107961
  50.4570839  73.2744997  26.8168572  50.8034354  72.3012576  28.6909155
  51.4600825  72.2275816  29.7251777  49.6693992  71.6351250  28.5180306
  49.3132334  71.0494004  29.2597666  49.1673451  71.7167331  27.6454581
  52.0460643  71.3108705  26.0471289  52.3103186  70.1823915  26.4664986
  51.3971744  71.5102223  24.9103951  51.1630941  72.4458358  24.6105067
  50.9120223  70.3941141  24.1221262  50.3994012  69.6630102  24.7472709
  49.9664014  70.8615680  22.9981186  50.4196843  71.7125802  22.4897750
  49.7206992  69.7452187  21.9959486  49.2669705  68.8939711  22.5035000
  49.0505690  70.1001376  21.2129679  50.6681336  69.4399620  21.5517801
  48.6506985  71.3692877  23.6055520  48.2118970  70.5411521  24.1620999
  48.9035406  72.1755775  24.2940774  47.6519384  71.8747720  22.5796817
  47.3982441  71.0688516  21.8910372  46.7496790  72.2155794  23.0874982
  48.0898890  72.7032760  22.0230128  52.0112244  69.5225221  23.5324794
  51.9538055  68.2949813  23.6339464  53.0201262  70.1568782  22.9446636
  52.9759772  71.1549725  22.7964814  54.0961996  69.4162045  22.3175803
  53.7290852  68.4569195  21.9527536  54.6496795  70.2104327  21.1328987
  55.0263392  71.1933141  21.4160435  55.4691334  69.6061521  20.7437454
  53.6089445  70.3859109  20.0331701  53.4188963  69.4979175  19.1940161
  52.8626365  71.4842460  20.0936229  52.1573117  71.6511838  19.3902394
  53.0043373  72.1467876  20.8426625  55.1945215  68.8898682  23.2306560
  55.9738087  68.0379959  22.8222456  55.2221708  69.3793769  24.4633079
  54.5267801  70.0651664  24.7206480  56.1959968  68.9754362  25.4651535
  57.0475244  68.4871090  24.9913007  56.6968787  70.2143696  26.2147498
  57.2354259  70.8267009  25.4914818  55.8152603  70.7534666  26.5614823
  57.5992596  69.9137383  27.3918659  57.1605276  69.1040242  27.9749424
  58.5752713  69.6041782  27.0181338  57.7599456  71.1369824  28.2688852
  58.2864339  71.9101016  27.7092462  56.7736743  71.5033257  28.5537728
  58.5461970  70.7914092  29.5108099  58.6837501  71.7035165  30.0915336
  57.9663122  70.0748917  30.0925620  59.8584650  70.2131294  29.1894035
  60.3961217  70.8770800  28.6507065  60.3498701  69.9971958  30.0449698
  59.7312169  69.3677087  28.6516574  55.5368824  68.0131469  26.4632504
  55.8368362  66.8157954  26.4818782  54.5902938  68.5457585  27.2346867
  54.4371618  69.5428572  27.1852487  53.8911479  67.7892036  28.2670886
  54.6024256  67.1702466  28.8139664  53.2055059  68.7268193  29.2506464
  52.4921259  69.3555741  28.7178654  52.6766496  68.1219760  29.9872437
  54.1985047  69.6267939  29.9809069  55.4016246  69.3448625  30.0261982
  53.7023348  70.7199527  30.5403648  54.3142792  71.3518441  31.0366883
  52.7143106  70.9166382  30.4680897  52.9403705  66.7085454  27.7988907
  52.6763307  65.7597988  28.5489259  52.4270845  66.8281447  26.5738101
  52.6108131  67.6405758  26.0025844  51.5346081  65.8077477  26.0528525
  51.2311199  65.1503531  26.8676080  50.2799408  66.4137675  25.4203078
  50.6760105  67.0295154  24.6127915  49.7130587  65.5835794  24.9989618
  49.3593728  67.2636448  26.3069804  49.8514440  68.2087553  26.5366173
  48.0569691  67.5357572  25.5825335  47.5640622  66.5910693  25.3529552
  47.4072916  68.1393343  26.2163431  48.2611573  68.0729279  24.6563287
  49.0838473  66.5645246  27.6470899  50.0244779  66.4041254  28.1739538
  48.4291971  67.1887308  28.2552848  48.6021197  65.6040260  27.4641146
  52.2597742  64.9325294  25.0271117  52.5910581  63.7673462  25.3014476
  52.5815292  65.5135437  23.8781143  52.3006085  66.4663204  23.6953591
  53.2476707  64.7795311  22.8221237  52.7210476  63.8487124  22.6115440
  53.3229437  65.6103599  21.5196942  53.9278854  66.4995688  21.6970422
  53.9491565  64.7858237  20.4087385  53.3444776  63.8966152  20.2304899
  53.9970128  65.3808443  19.4967294  54.9560874  64.4873528  20.7004695
  51.9341091  66.0616593  21.1141842  51.5048033  66.6745579  21.9067458
  51.9950297  66.6461819  20.1961855  51.3022228  65.1892723  20.9475668
  54.6414005  64.2842451  23.1930186  54.9773374  63.1327092  22.9224057
  55.4437842  65.1467762  23.8076334  55.1338863  66.0842487  24.0202549
  56.7972741  64.7616835  24.1927123  57.3419076  64.4724294  23.2939323
  57.2835363  65.6233542  24.6500656  56.8158467  63.6046321  25.1754799
  57.5442104  62.6286569  24.9697719  56.0124817  63.7219615  26.2327724
  55.4861817  64.5767678  26.3441902  55.8757980  62.6856788  27.2548515
  56.8453776  62.4812136  27.7089533  54.9133255  63.1452890  28.3463011
  53.9905130  63.4944187  27.8830249  54.6935119  62.3043866  29.0040740
  55.4901788  64.1976426  29.1016726  54.8748202  64.4765889  29.7836716
  55.3631307  61.3838562  26.6274151  55.7794865  60.2978153  27.0273388
  54.4923691  61.5100802  25.6276018  54.1726433  62.4294967  25.3582545
  53.9575466  60.3598975  24.9191438  53.5279136  59.6522951  25.6282372
  52.8649571  60.7896493  23.9327908  53.2822432  61.4914612  23.2106880
  52.4831276  59.9136617  23.4084319  52.0517438  61.2697435  24.4771188
  55.0762269  59.6434972  24.1635871  55.1797659  58.4223834  24.2201960
  55.9142245  60.4108754  23.4692918  55.7605436  61.4086490  23.4388058
  57.0267609  59.8577056  22.7009651  56.6506957  59.0756344  22.0413904
  57.7235366  60.9319962  21.8436387  58.1436057  61.6604237  22.5372052
  58.5314523  60.4303190  21.3110111  56.8181233  61.6479036  20.8390640
  56.1723571  62.3216334  21.4022469  57.4593106  62.2293148  20.1765370
  55.7877475  60.5254830  19.8417442  57.0368830  59.9648157  18.6986249
  57.8401966  59.4749944  19.2489533  56.5957701  59.2585369  17.9952827
  57.4391236  60.8178038  18.1520764  58.0739289  59.1933514  23.5826826
  58.7736964  58.2767602  23.1320220  58.2118369  59.6901734  24.8115229
  57.6903203  60.5118387  25.0816818  59.1717143  59.1434698  25.7538102
  60.0400637  58.8219514  25.1787498  59.6116674  60.2220014  26.7392644
  58.7546451  60.5476509  27.3288110  60.3763119  59.8183796  27.4029726
  60.0187953  61.0715764  26.1910233  58.6321097  57.8993728  26.4911490
  59.3712906  57.2410731  27.2144105  57.3518897  57.5845719  26.2779492
  56.7866791  58.1448153  25.6560460  56.7351978  56.4391627  26.9253477
  55.7722344  56.2492999  26.4512667  57.3832860  55.5732932  26.7898819
  56.5191599  56.6655173  28.4050977  56.8676748  55.8147182  29.2353641
  55.9447106  57.8145778  28.7370511  55.6796160  58.4663526  28.0124728
  55.6776691  58.1759979  30.1221390  56.4303024  57.7409572  30.7796966
  55.7237411  59.7029041  30.2668175  56.6804431  60.0544613  29.8805171
  54.9144807  60.1274376  29.6727055  55.5814502  60.1100811  31.6189718
  55.6150495  61.0681417  31.6698713  54.3197859  57.7115528  30.6153386
  53.3471685  57.6998555  29.8584267  54.2650410  57.2779060  31.8726665
  55.1005879  57.2515272  32.4394688  52.9996108  56.9195328  32.4929730
  52.2199211  57.0351589  31.7401026  52.9454379  55.4863157  33.0755261
  53.7766571  55.3433211  33.7659807  51.6139053  55.2844318  33.8259771
  50.7821697  55.4268193  33.1360189  51.5766262  54.2750963  34.2357977
  51.5401843  56.0084450  34.6374383  53.0683176  54.4112718  31.9845343
  53.7928403  54.7831496  31.2600521  53.4648162  53.5189093  32.4688663
  51.7908077  54.0716768  31.2827018  51.3939208  54.9635059  30.7977053
  51.9808721  53.3045801  30.5320106  51.0658955  53.6992675  32.0065205
  52.9430918  57.8976713  33.6648078  53.7836051  57.8474708  34.5467802
  52.0354971  58.8678915  33.6018987  51.4209064  58.9576328  32.8054540
  51.9050609  59.8292528  34.6851346  50.8843041  60.2065255  34.6233283
  52.0249083  59.2558797  35.6043621  52.8640155  61.0026102  34.7072137
  52.7944509  61.8311989  35.6148389  53.7551127  61.0913609  33.7221639
  53.7944682  60.4091869  32.9783971  54.7026744  62.1893644  33.6990546
  54.7026535  62.6582029  34.6830717  55.6914327  61.7798392  33.4923049
  54.3727483  63.2410260  32.6493395  55.2341359  63.6426815  31.8787889
  53.1198999  63.6841498  32.6291889  52.4509219  63.2771826  33.2671118
  52.6435678  64.6863439  31.6662337  53.2847823  64.7092183  30.7850868
  51.2230045  64.3105918  31.2287692  50.6692138  64.2241689  32.1636201
  50.7597519  65.0723891  30.6017430  51.2021479  62.9917457  30.5113244
  51.0973219  61.7796151  31.2163726  50.9359251  61.8085154  32.2939696
  51.1967945  60.5510455  30.5573148  51.1596028  59.6146422  31.1139722
  51.3964683  60.5344742  29.1837964  51.4455672  59.3476484  28.4856878
  51.3294588  58.5773651  29.0467424  51.5013764  61.7235845  28.4710636
  51.6648809  61.7034174  27.3935850  51.3977676  62.9344005  29.1325096
  51.4690272  63.8680607  28.5745663  52.6921901  66.1074051  32.2272970
  51.6961968  66.8190637  32.2489612  53.8710591  66.4921564  32.6836262
  54.6534304  65.8604836  32.5888427  54.1042833  67.7929728  33.2944317
  53.4043381  68.5256782  32.8927868  53.9028322  67.7029041  34.8054628
  54.1162608  68.6637793  35.2737215  52.8595047  67.4388731  34.9782499
  54.7970993  66.6285276  35.4557217  55.8941854  66.9201504  35.9256017
  54.3019459  65.3952725  35.5123685  54.8473382  64.6540311  35.9285514
  53.3828516  65.2057550  35.1389388  55.5520505  68.1973775  33.0088568
  56.3333118  67.4085315  32.4715248  55.9103534  69.4208532  33.3731593
  55.2313684  70.0632349  33.7558137  57.2667767  69.9084958  33.1327812
  57.6317786  69.3935536  32.2441265  57.2386173  71.4258025  32.8472405
  56.8838221  71.9558559  33.7311318  58.2430871  71.7678217  32.5979145
  56.5690371  71.6262723  32.0108354  58.2344303  69.5808756  34.2717257
  59.3071600  69.0320063  34.0392319  57.8706095  69.9323408  35.4997765
  57.0478450  70.4952200  35.6620261  58.7461669  69.6482807  36.6280061
  59.0966884  68.6183722  36.5607575  59.9738743  70.5878517  36.6455232
  60.7623635  70.2556180  37.3208045  60.3552588  70.6083003  35.6246277
  59.6610382  72.0116440  37.0166539  60.5835039  72.8377525  37.6296202
  60.0098971  73.9917497  37.9193371  60.5741465  74.7809549  38.4162040
  58.7525365  73.9498009  37.5096070  58.0733813  74.6918533  37.6001959
  58.5105156  72.7267303  36.9351776  57.5255452  72.5021555  36.5259089
  58.0582217  69.6300645  37.9830060  58.5706414  70.1990992  38.9485206
  56.9164948  68.9571778  38.0639817  56.4929578  68.5621389  37.2365398
  56.2002397  68.8438695  39.3279868  55.9324132  69.8470328  39.6596969
  54.9242864  68.0370733  39.1403280  55.1766054  67.0271885  38.8169582
  54.3809909  67.9907170  40.0841402  54.2997200  68.5144074  38.3852332
  57.0933700  68.2287123  40.4250414  57.0025953  68.6130697  41.5996419
  57.9932745  67.3247936  40.0345941  58.0208486  67.0209557  39.0717745
  58.8913373  66.6771554  40.9929489  58.2606091  66.1919637  41.7378449
  59.7716706  65.5885420  40.2985397  60.4154078  66.0603313  39.5561669
  60.3866421  65.0869101  41.0457183  59.1278479  64.8580226  39.8087101
  59.7650930  67.6924623  41.7313039  60.0625251  67.5122674  42.9083922
  60.1790577  68.7540041  41.0443460  59.9191694  68.8710050  40.0753939
  60.9988674  69.7942580  41.6749908  61.9373548  69.3583889  42.0175675
  61.3139367  70.9219186  40.6927450  60.5003636  70.9422992  39.9676362
  61.3584616  71.8775993  41.2150400  62.6056536  70.7164336  39.9582373
  63.4566338  69.9646967  40.3899008  62.7750651  71.4281338  38.8573924
  63.6261371  71.3302682  38.3224171  62.0526606  72.0665372  38.5562717
  60.2570683  70.4169282  42.8500393  60.8095802  70.5403612  43.9419371
  58.9973024  70.7769832  42.6199536  58.6011647  70.6553634  41.6988766
  58.1777115  71.4141326  43.6477344  58.7909342  72.1779988  44.1258197
  56.8874857  72.0697934  43.0722281  56.3217831  71.3227884  42.5153937
  56.0333293  72.6104153  44.2044055  56.5982333  73.3578657  44.7614532
  55.1327120  73.0675065  43.7944581  55.7547577  71.7946749  44.8715373
  57.2377565  73.2296751  42.1442654  56.3022563  73.7301484  41.8943322
  57.8727691  73.9099137  42.7118339  57.9285248  72.8326272  40.9045295
  57.2938906  72.1527012  40.3361635  58.1389291  73.7186226  40.3054957
  58.8644029  72.3324641  41.1536657  57.7856997  70.4428943  44.7442033
  57.8438601  70.7816019  45.9194699  57.3571083  69.2468074  44.3629483
  57.2345906  69.0271336  43.3847703  56.9656635  68.2490812  45.3489135
  56.1754260  68.6438593  45.9874854  56.4487579  66.9480254  44.6633097
  57.2012934  66.6022412  43.9546330  56.1816417  65.8487844  45.7032949
  55.4288171  66.1936848  46.4120966  55.8219155  64.9513689  45.1999631
  57.1044477  65.6204528  46.2365822  55.1648672  67.2376778  43.9020034
  55.3563050  67.9930682  43.1398755  54.8101127  66.3236214  43.4258209
  54.4064798  67.6042886  44.5937734  58.1241688  67.9453106  46.3035516
  57.9642378  67.9973189  47.5173367  59.3105779  67.7341885  45.7442110
  59.4023833  67.7250804  44.7384336  60.4819194  67.4046703  46.5485219
  60.2696731  66.5638783  47.2089153  61.6611632  67.0300240  45.6413229
  61.9231658  67.8944853  45.0312725  62.8667804  66.6079395  46.4658985
  62.6056648  65.7431814  47.0759081  63.6896217  66.3472514  45.8002611
  63.1706146  67.4303545  47.1135241  61.2593564  65.9545320  44.7826347
  61.9907037  65.7119129  44.2100376  60.8830068  68.5090922  47.5284847
  61.1198399  68.2472351  48.7137602  60.9096277  69.7445203  47.0366201
  60.7153218  69.8869978  46.0557813  61.2731762  70.9051052  47.8465078
  62.2764090  70.7522257  48.2443154  61.2784039  72.1606087  46.9802766
  60.2783489  72.3320606  46.5820376  61.5807503  73.0171264  47.5828249
  61.9798525  72.0310896  46.1560837  60.3310652  71.0808518  49.0387188
  60.7821381  71.3031203  50.1616431  59.0293941  70.9426489  48.8127514
  58.6749461  70.7564948  47.8854906  58.0705369  71.0987875  49.9013811
  58.3540122  71.9703407  50.4914116  56.6271058  71.2684708  49.3976796
  56.3275056  70.3754668  48.8491506  55.6946726  71.4731803  50.5790975
  55.9933810  72.3663246  51.1278846  54.6727064  71.5931309  50.2195176
  55.7478457  70.6071994  51.2389072  56.5132264  72.4639765  48.4523804
  56.7872386  73.3552890  49.0168094  57.2287474  72.3120600  47.6442649
  55.1138853  72.6430914  47.8661131  54.3978350  72.7955319  48.6736610
  55.1046567  73.5094146  47.2046767  54.8393429  71.7523012  47.3011182
  58.1078573  69.8986490  50.8584384  57.9401804  70.0519058  52.0686556
  58.3112927  68.7024064  50.3119892  58.3730031  68.6144211  49.3077234
  58.3805001  67.4864407  51.1195248  57.4804319  67.3984243  51.7279897
  58.4906382  66.2473066  50.2266367  59.0983212  66.5583972  49.3769054
  59.0161574  65.4718662  50.7839712  57.1666599  65.7016334  49.7279580
  56.1137676  66.5599804  49.3781710  56.2722141  67.6365747  49.4409329
  54.8867198  66.0617028  48.9579471  54.0826528  66.7421015  48.6775263
  54.6901468  64.6892072  48.8893987  53.4688546  64.1901856  48.4899431
  52.8315428  64.8781346  48.2846152  55.7196841  63.8107757  49.2294826
  55.5673401  62.7328592  49.1748208  56.9486773  64.3203342  49.6410487
  57.7604246  63.6412897  49.9019412  59.5387371  67.5119622  52.1118411
  59.3749795  67.1436631  53.2729665  60.7092342  67.9538567  51.6590753
  60.8280978  68.1945735  50.6854089  61.8797945  68.0169235  52.5381419
  61.9512275  67.0715303  53.0759413  63.1976854  68.2619185  51.7407725
  63.0576408  69.1246239  51.0894452  64.3752286  68.5244789  52.6916899
  64.5161920  67.6619606  53.3430671  65.2819152  68.6921735  52.1103993
  64.1643069  69.4058691  53.2972991  63.5391411  67.0354078  50.8838540
  63.8030632  66.2280608  51.5669622  62.6377272  66.7651838  50.3338254
  64.6818499  67.2645328  49.9037762  65.5837890  67.5343619  50.4531376
  64.8624215  66.3519935  49.3356518  64.4184536  68.0714869  49.2200019
  61.6959052  69.0899579  53.6182349  62.0235528  68.8598316  54.7825609
  61.1215993  70.2313708  53.2378741  60.8694404  70.3728367  52.2701435
  60.8960744  71.3274446  54.1809683  61.8318185  71.5139844  54.7079268
  60.4842540  72.6119654  53.4404067  59.5440567  72.4436513  52.9152407
  60.3585017  73.4218337  54.1590165  61.2580844  72.8815657  52.7216568
  59.8428149  70.9739200  55.2181827  59.9601739  71.3750324  56.3799528
  58.8443414  70.1885879  54.8118685  58.7857086  69.9271896  53.8380448
  57.7457796  69.8135101  55.6962392  57.7308757  70.4568219  56.5760273
  56.4190818  69.9716272  54.9528221  56.4113884  69.3901540  54.0309062
  55.5780456  69.6717097  55.5779682  56.0949515  71.7010879  54.4634754
  54.9253605  71.4627135  53.8768471  57.8027829  68.4471392  56.3816342
  56.8013840  67.9837914  56.9229863  58.9599980  67.7992064  56.3592229
  59.7696820  68.1800125  55.8907169  59.0881507  66.5076554  57.0189129
  60.1522927  66.2720131  57.0320847  58.7346127  66.6464670  58.0405986
  58.3347090  65.3524143  56.3887242  57.9448287  64.4087441  57.0829079
  58.0842292  65.4345344  55.0856168  58.3668104  66.2401321  54.5459321
  57.4020928  64.3483121  54.3981744  56.6642879  63.9043019  55.0664544
  56.6863412  64.8467326  53.1420905  57.4589760  65.1338938  52.4288773
  56.1198593  64.0048990  52.7439518  55.7514299  66.0206713  53.3751031
  56.3223004  66.8672115  53.7566493  55.2974714  66.2895348  52.4213022
  54.6483360  65.6962686  54.3620238  53.8325720  64.8104235  54.1249887
  54.6282087  66.4041373  55.4816388  53.9139344  66.2284777  56.1737786
  55.3272316  67.1162066  55.6379259  58.4542376  63.3261513  53.9962099
  59.6628859  63.5417949  54.1748940  57.9989795  62.1887213  53.4847617
  57.0090294  62.0067884  53.4011045  58.9310063  61.1621048  53.0338298
  59.8140104  61.1711570  53.6728299  58.3034944  59.7754899  53.0904146
  57.8860834  59.6130520  54.0841355  57.5005041  59.7647612  52.3533994
  59.2961136  58.6725094  52.7725921  60.3859022  58.9509349  52.2071984
  58.9913772  57.5145192  53.1205987  59.2933653  61.5263365  51.6019020
  58.4983314  61.3428526  50.6912029  60.5017747  62.0451889  51.4188288
  61.0765282  62.2329672  52.2278388  60.9909210  62.4693788  50.1070301
  60.2622698  63.2074502  49.7717432  62.3565432  63.1552618  50.2428769
  63.0987491  62.4267432  50.5692066  62.6534482  63.5688739  49.2790965
  62.2890348  63.9581540  50.9769791  61.0556792  61.3709393  49.0450306
  60.9411968  61.6648779  47.8570908  61.2348550  60.1174316  49.4683325
  61.3859865  59.9239247  50.4480333  61.2940207  59.0030679  48.5248957
  62.0018728  59.2678758  47.7394523  61.7663730  57.7344615  49.1921455
  61.0628371  57.4514736  49.9751239  61.8273314  56.9355878  48.4531022
  62.7505842  57.8987887  49.6308074  59.9420228  58.7823214  47.8640458
  59.8543245  58.1491378  46.8080451  58.8882934  59.3148075  48.4782981
  58.9926087  59.7361496  49.3902676  57.5438225  59.1848019  47.9259398
  57.4384264  58.2194082  47.4309591  56.5014907  59.2795370  49.0374297
  56.9043596  59.9034973  49.8352200  55.6046383  59.7460005  48.6297931
  56.1497983  57.9042862  49.5963176  55.7052375  57.3185463  48.7917213
  57.0662375  57.4202325  49.9338577  55.1805970  57.9546103  50.7467638
  55.0479571  58.9854812  51.4221362  54.4962911  56.8370980  50.9911869
  53.8313410  56.8117356  51.7509892  54.6458793  56.0208468  50.4154623
  57.2878822  60.1771916  46.7999099  56.1918093  60.2625041  46.2521984
  58.3397438  60.8949663  46.4355506  59.2135113  60.7620418  46.9243868
  58.2994959  61.8544078  45.3452029  57.5045586  62.5841880  45.4988088
  59.6328152  62.5884616  45.3054333  59.6759810  63.2854350  46.1423705
  60.4326499  61.8543965  45.4029683  59.8382947  63.3553316  44.0315092
  60.7700540  63.0639021  43.2623730  58.9674003  64.3480088  43.7812215
  59.0597666  64.8960279  42.9378691  58.2245574  64.5414247  44.4376326
  58.0913383  61.0968690  44.0291803  57.6047822  61.6516759  43.0415252
  58.4453526  59.8118823  44.0372466  58.9032458  59.4258087  44.8504996
  58.3120880  58.9702669  42.8544275  58.8481746  59.4093022  42.0130249
  58.8738741  57.5505391  43.1125833  58.4535395  57.1716154  44.0441599
  58.5147067  56.6069573  41.9734533  58.9351189  56.9850033  41.0415543
  58.9210176  55.6167075  42.1794078  57.4304193  56.5425121  41.8825173
  60.3736867  57.6316759  43.2570865  60.6238228  58.2825957  44.0948438
  60.7761214  56.6351784  43.4391266  60.8060646  58.0359510  42.3418205
  56.8666424  58.9316983  42.3362652  56.6199854  59.2309301  41.1589030
  55.9117732  58.6023717  43.1991127  56.1204871  58.3595776  44.1570213
  54.5178309  58.5854360  42.7693383  54.4981009  58.3691711  41.7011906
  54.0089940  57.7877234  43.3104842  53.7851055  59.9071098  43.0241729
  52.8824480  60.2965244  42.2796229  54.1840692  60.6045235  44.0813423
  54.9144735  60.2308524  44.6703913  53.5732713  61.8752602  44.4584475
  52.5117583  61.7366280  44.6635583  54.2481651  62.4167181  45.7197673
  55.3275974  62.3326942  45.5938110  53.9763876  63.4665126  45.8300784
  53.8530239  61.7058858  46.8711629  54.2949205  62.0721557  47.6406911
  53.6331544  62.9498851  43.3727402  52.7973473  63.8372779  43.3372387
  54.6680173  62.8778959  42.5400852  55.3443703  62.1439628  42.6949662
  54.9011705  63.8113791  41.4497427  54.6403257  64.8213381  41.7660367
  56.3678181  63.7938863  41.0372663  56.6652436  62.7662974  40.8282247
  56.4905257  64.3972285  40.1378102  57.1731370  64.3144700  42.0632171
  58.0927814  64.2966450  41.7883784  54.0736903  63.5607242  40.1983205
  54.2307997  64.2872661  39.2292078  53.2766397  62.4876319  40.1761325
  53.2510636  61.8476052  40.9570364  52.4291527  62.2028305  39.0176766
  53.0607270  61.9908310  38.1549661  51.5193333  60.9986165  39.2650109
  51.1418461  61.0147122  40.2874314  50.6843549  61.0765368  38.5687068
  52.2234563  59.6796457  39.0301411  53.2673596  59.6250888  38.3586425
  51.6787864  58.6084158  39.6155052  52.1039503  57.7001876  39.4952681
  50.8445741  58.7121477  40.1753538  51.5738579  63.4387733  38.7369667
  50.8966834  63.9529604  39.6265961  51.5419311  63.8694493  37.4853994
  52.0223404  63.3959315  36.7336766  50.8084866  65.0688293  37.1778447
  49.8183447  65.0544809  37.6333799  51.6030946  66.2624656  37.7594316
  51.6270586  66.1800770  38.8460489  52.6212502  66.2368967  37.3710949
  50.9737069  67.9046313  37.3984535  51.9192187  68.5646868  38.0611995
  50.5984853  65.2951799  35.6997257  51.4840159  65.0230079  34.9053297
  49.3925098  65.7410140  35.3458558  48.6426953  65.7674903  36.0220042
  49.0966593  66.1193495  33.9729058  49.9990104  66.0394342  33.3667084
  47.9641431  65.2995104  33.3195232  48.2994007  64.2678019  33.2133141
  46.7008867  65.3365582  34.1592824  46.3647399  66.3679711  34.2655533
  45.9224857  64.7496870  33.6716608  46.9066792  64.9186694  35.1447354
  47.7220197  65.8376736  31.9079405  47.1129755  66.7348760  32.0183655
  48.6988771  66.1092562  31.5078255  47.0491345  64.8934490  30.9748051
  46.0719518  64.6217546  31.3740492  46.9240955  65.3699487  30.0024819
  47.6578529  63.9961333  30.8635111  48.7650419  67.6339098  33.9683485
  47.8361239  68.1018651  34.6402192  49.6085489  68.3989913  33.2899709
  50.4033607  67.9746322  32.8335797  49.4427862  69.8358249  33.1866372
  48.8469873  70.2099124  34.0192125  50.8093749  70.5247776  33.2146617
  51.4134245  70.1452431  32.3905392  50.6499000  72.0604579  33.0735947
  50.0463094  72.4408073  33.8976774  51.6324408  72.5318604  33.0957827
  50.1586677  72.2899142  32.1280043  51.4590392  70.2236579  34.4579446
  52.3174262  70.6528015  34.4825996  48.7258649  70.1918240  31.8910595
  49.1871058  69.8302506  30.8210756  47.5753472  70.8528741  31.9920143
  47.1636845  71.0217268  32.8987237  46.8188626  71.2454665  30.8027977
  47.3864421  70.9922101  29.9073570  45.4741228  70.5199699  30.7503157
  44.9677038  70.8578926  31.6544436  44.9304090  70.8760491  29.8752826
  45.5212344  68.9853656  30.7336668  46.1093995  68.6388103  31.5834091
  44.1167702  68.4104190  30.8217718  43.5281011  68.7561832  29.9720573
  44.1678285  67.3216925  30.8087925  43.6458961  68.7405384  31.7477303
  46.2302072  68.4778753  29.4924894  47.2511668  68.8592389  29.4750887
  46.2501241  67.3881261  29.5047895  45.6995333  68.8210532  28.6043941
  46.6366457  72.7723054  30.6939585  46.3830935  73.4682201  31.6851371
  46.7804762  73.2753425  29.4707154  46.9907196  72.6453738  28.7097709
  46.6603275  74.6971878  29.1771064  46.2149933  75.2145597  30.0268728
  48.0301314  75.2989796  28.9052815  48.5877001  74.5721765  28.3145417
  47.8719612  76.2015483  28.3149832  48.8102157  75.6413143  30.1448103
  48.3804624  76.5141468  30.6363144  48.8132431  74.7996844  30.8374516
  50.4702031  76.0040452  29.6649267  51.3658233  75.6242555  31.1412990
  51.2140696  74.5762065  31.3994911  52.4280320  75.8080400  30.9799403
  51.0082964  76.2540509  31.9559361  45.7832365  74.9556412  27.9685030
  45.8641224  74.2391507  26.9829814  44.9640992  76.0024473  28.0297667
  44.8442189  76.5040799  28.8981518  44.1111753  76.3623976  26.8977422
  44.6994078  76.3187643  25.9811301  42.9122783  75.4143194  26.7567602
  42.4936631  75.5987168  25.7673876  43.3179125  74.4033856  26.7964312
  41.8335271  75.5616964  27.7920171  42.2499303  75.2920841  28.7625934
  41.5226270  76.6062925  27.8081190  40.6339030  74.6819342  27.4947872
  40.1033592  74.7527311  26.3589786  40.2224199  73.9131551  28.3994094
  43.6416521  77.8198832  26.8924755  43.5994410  78.4884130  27.9313827
  43.3164904  78.3033950  25.6932978  43.4390164  77.7113288  24.8842586
  42.8396040  79.6703426  25.4862821  43.5621056  80.3689207  25.9082764
  42.6974257  79.9565537  24.0057638  41.9702996  79.2708461  23.5708009
  42.3581041  80.9827137  23.8644955  43.6614082  79.8223664  23.5150185
  41.5115419  79.8994451  26.1985807  40.5788890  79.1010122  26.0864859
  41.4444792  80.9934272  26.9479370  42.2476408  81.6023702  27.0128918
  40.2461844  81.3512228  27.6901781  39.3921665  80.7680735  27.3456648
  40.4770111  81.0512438  29.1716370  41.0053602  80.1011490  29.2507971
  41.0946981  81.8458511  29.5901607  39.2591184  80.9743335  29.8876560
  39.4421163  80.7853806  30.8109157  39.9647119  82.8469325  27.4891363
  40.7784055  83.5699276  26.9143922  38.8098789  83.3021948  27.9571780
  38.1453626  82.6870745  28.4045530  38.4718459  84.7095590  27.8355275
  37.9349098  84.9617102  28.7499773  39.4245395  85.2388160  27.8165168
  37.6408354  85.1433136  26.6381522  37.3446398  84.3399513  25.7426573
  37.2779826  86.4427979  26.5898155  37.6271782  87.3937492  27.6592659
  38.6163948  87.8152874  27.4807826  37.6154000  86.8931761  28.6274533
  36.5269325  88.4203154  27.5283075  36.7905740  89.3642629  28.0053351
  35.5824867  88.0593521  27.9355286  36.4471881  88.5636210  26.0369720
  37.3109790  89.1024048  25.6475157  35.5327986  89.0498881  25.6970665
  36.4776458  87.1164007  25.5540756  35.4903793  86.6544456  25.5549196
  37.0773059  87.0249244  24.1619773  36.3582608  86.8512656  23.1778946
  38.3935734  87.1594699  24.0803727  38.9427509  87.3298360  24.9107213
  39.0846343  87.0783055  22.7992903  38.3747086  86.8744263  21.9977057
  39.8272874  88.3990197  22.4786134  40.3732149  88.2799616  21.5427242
  38.8270384  89.5635082  22.3448172  38.2810245  89.6834832  23.2805385
  39.3671864  90.4830501  22.1194684  38.1243501  89.3488859  21.5396669
  40.7720084  88.6889556  23.5212281  41.2302613  89.5079544  23.3191254
  40.1032507  85.9445207  22.8070829  41.1037304  86.0099887  22.0791623
  39.8381012  84.9017330  23.6056262  38.9929029  84.9057215  24.1585488
  40.7513091  83.7583890  23.7374820  40.4398180  83.1470968  24.5844733
  40.7532905  82.8881517  22.4819216  40.6789002  83.5304251  21.6043965
  41.6924632  82.3359231  22.4487836  39.6120507  81.9008228  22.4551018
  39.3020413  81.3450683  21.4029112  38.9829190  81.6660900  23.6084200
  38.2133763  81.0125470  23.6364460  39.2792142  82.1430604  24.4479491
  42.1609052  84.2619501  24.0111004  43.1453630  83.7128860  23.5112229
  42.2212848  85.3358626  24.7892779  41.3494712  85.7219492  25.1224108
  43.4596666  86.0037003  25.1635135  44.1989314  85.9118734  24.3678034
  43.1714879  87.5057971  25.3998871  44.0769800  87.9367154  25.8270787
  42.9856900  87.9485602  24.4213474  41.9559390  87.8006368  26.3460199
  41.0520152  87.4568191  25.8432157  42.1162279  87.2101996  27.2481234
  41.7980702  89.2925116  26.7274895  41.8133921  90.1652670  25.8150421
  41.6421446  89.5884925  27.9454368  44.1036354  85.4150013  26.4222452
  45.3267270  85.2935794  26.5136867  43.2683508  85.0899573  27.4009383
  42.2845230  85.2959861  27.3022757  43.7384789  84.5709018  28.6719658
  44.6695555  85.0570297  28.9632996  42.6825228  84.8525480  29.7453428
  41.8491871  84.1674955  29.5892855  43.1364089  84.6564088  30.7167422
  42.1692818  86.3016464  29.7029224  43.0050219  87.2313641  29.6286487
  40.9301269  86.5128260  29.7388015  44.1599147  83.0902954  28.6703745
  43.6883700  82.2811494  27.8703586  45.1013717  82.7764840  29.5450236
  45.4994050  83.5129959  30.1100182  45.6257279  81.4294910  29.6995374
  45.4554613  80.8582873  28.7869396  47.1325075  81.4735495  29.9757473
  47.5430808  81.9566001  29.0890732  47.2912086  82.1133722  30.8438147
  47.8397084  80.1215210  30.1980511  47.3536508  79.6009198  31.0231713
  47.7660364  79.2547984  28.9318033  48.2523313  79.7745746  28.1063042
  48.2710826  78.3055774  29.1107123  46.7223478  79.0684063  28.6786780
  49.2924052  80.3423399  30.6092638  49.3251886  80.9162369  31.5353670
  49.7777525  79.3784434  30.7623738  49.8135004  80.8903090  29.8242232
  44.9531516  80.6310836  30.8089290  45.0666070  80.9698967  31.9848612
  44.2167489  79.5939847  30.4286805  44.0805007  79.3773044  29.4516517
  43.6016313  78.7207529  31.4234562  43.3900399  79.2997981  32.3223639
  42.2904324  78.1048073  30.9169373  41.5563500  78.9095732  30.8772624
  42.4573218  77.7161063  29.9123680  41.7707636  76.9872716  31.8139626
  40.9102516  77.2622383  32.8822423  40.6028546  78.2934782  33.0558824
  40.4440975  76.2411520  33.7217636  39.7697225  76.4702157  34.5468999
  40.8476130  74.9252877  33.4955839  40.3941564  73.9161997  34.3240231
  39.8106268  74.2336443  35.0170756  41.7014515  74.6272656  32.4445064
  42.0192677  73.5996190  32.2683368  42.1562564  75.6553296  31.6062135
  42.8223179  75.4258583  30.7744653  44.6089583  77.5900058  31.6955580
  45.1611013  77.0003531  30.7632427  44.8763181  77.3264345  32.9682759
  44.4962010  77.9057219  33.7031477  45.7888933  76.2581827  33.3360931
  45.8912832  75.5636063  32.5023191  47.1964191  76.7814180  33.7515411
  47.6318960  77.3202352  32.9100328  47.0998569  77.7139963  34.9579276
  46.6648685  77.1757156  35.8000318  48.0960730  78.0649114  35.2272098
  46.4696419  78.5676192  34.7084157  48.1158589  75.5932629  34.0668884
  47.6374916  75.0422772  34.8766292  48.1358608  74.9748522  33.1695213
  49.5574923  75.9545465  34.4734869  49.5383214  76.5726106  35.3711110
  50.1187437  75.0417836  34.6733868  50.0366900  76.5051879  33.6640034
  45.2261152  75.3830740  34.4481806  44.5648104  75.8724128  35.3740276
  45.4645916  74.0754008  34.3211422  45.9138055  73.7303420  33.4849361
  45.0357408  73.1053067  35.3288159  44.9128613  73.6118462  36.2861129
  43.7103675  72.4508907  34.9497494  43.3735727  71.8421164  35.7888336
  42.9804408  73.2367851  34.7556438  43.8434517  71.6359804  33.7990888
  42.9948832  71.2400447  33.5875084  46.1090673  72.0373534  35.5422150
  46.8488120  71.6778595  34.6132926  46.2153826  71.5738886  36.7864857
  45.6092336  71.9547038  37.4989900  47.1545410  70.5273228  37.1660097
  47.6116917  70.1104739  36.2685971  48.2658220  71.0718211  38.0751863
  47.8472568  71.7796671  38.7906276  48.7417667  70.2515156  38.6124717
  49.6097798  71.9592070  37.2114585  50.3131295  72.2435578  38.3038605
  46.3591182  69.4763878  37.9260310  45.6461119  69.8102408  38.8747930
  46.4441621  68.2195158  37.4800385  46.9729820  68.0253532  36.6417368
  45.7390474  67.1203764  38.1206162  45.1853089  67.5211799  38.9696329
  44.7297449  66.4466961  37.1404156  45.2867361  65.8429875  36.4238983
  43.7478231  65.5612550  37.8944432  43.1900975  66.1643900  38.6108718
  43.0549072  65.1031763  37.1886595  44.2942873  64.7812112  38.4245462
  43.9525162  67.4412232  36.4522611  43.3378184  67.0096562  35.8543507
  46.8010813  66.1357950  38.6369305  47.6415929  65.6380635  37.8652766
  46.8191696  65.9460783  39.9557593  46.1429587  66.4423334  40.5184039
  47.7727342  65.0662498  40.6324737  48.4139705  64.5735532  39.9016077
  48.6545064  65.8905145  41.5824856  48.0099779  66.2620903  42.3791120
  49.3967303  65.2120322  42.0030395  49.3612908  67.0642098  40.9115660
  49.8326370  66.6747286  40.0092146  48.5887833  67.7822649  40.6363732
  50.6217150  67.9008880  41.9338457  51.9809720  66.6723298  42.0021111
  52.3331216  66.4628175  40.9920644  52.8024003  67.0712169  42.5972961
  51.6166241  65.7515326  42.4576157  46.9545154  64.0222734  41.4101846
  46.4837496  64.2643878  42.5106455  46.8378095  62.8173974  40.8384167
  47.5512099  62.3713778  39.6268155  48.4884816  61.8799224  39.8877630
  47.7549409  63.2132974  38.9651782  46.5689726  61.4451722  39.0643857
  47.0741633  60.7425683  38.4016421  45.8258947  62.0072964  38.4987418
  45.9259870  60.7305343  40.2473033  46.3790067  59.7720361  40.5005885
  44.8696394  60.5842788  40.0218287  46.0803969  61.7064080  41.4205007
  45.1231281  62.1426572  41.7058448  46.6661125  60.9708221  42.5960289
  45.9494597  60.2298169  43.2489249  47.9282870  61.2047206  42.9164442
  48.5184061  61.8324757  42.3893936  48.5305485  60.4340856  43.9970051
  47.7809215  60.1443892  44.7333708  49.1420763  59.1658675  43.3966106
  49.5214267  58.5432879  44.2069112  48.3649630  58.6248586  42.8566992
  50.1945237  59.4803591  42.5141824  50.5608272  58.6704874  42.1515124
  49.5504869  61.1097087  44.9016206  50.6922163  60.6581238  45.0047468
  49.1035985  62.1405535  45.6166526  48.1478559  62.4391739  45.4844354
  49.9363871  62.8819466  46.5595998  50.9723432  62.9019363  46.2212292
  49.4117904  64.3516710  46.7241156  48.3584404  64.3149778  47.0019787
  50.1960763  65.1053527  47.7987688  51.2495166  65.1428640  47.5213575
  49.8080460  66.1200270  47.8880387  50.0905475  64.5911987  48.7540742
  49.5151318  65.0960029  45.3737333  50.5751310  65.2006236  45.1423092
  49.0396773  64.4675111  44.6207124  48.8568850  66.4730811  45.3759490
  49.3321535  67.1023317  46.1284537  48.9710524  66.9325150  44.3941214
  47.7966996  66.3692192  45.6068593  49.9167106  62.1443981  47.9085138
  48.8817796  62.0429332  48.5624998  51.0566410  61.5695200  48.2752943
  51.8462657  61.6128665  47.6470322  51.2033176  60.8212459  49.5214825
  50.2349545  60.4663911  49.8742575  52.1073135  59.6049532  49.2613337
  53.0818609  59.9611685  48.9274666  52.2229818  59.0520218  50.1935288
  51.4945035  58.6659599  48.1713302  51.0089450  57.8670178  48.7317097
  50.7429356  59.2310198  47.6200117  52.5116133  58.0541992  47.1773536
  53.5688090  58.6654843  46.8810347  52.2302260  56.9536881  46.6477402
  51.7648855  61.8230655  50.5195506  52.9296853  62.2141616  50.4459696
  50.9325588  62.2165803  51.4736158  49.9995334  61.8370021  51.5476646
  51.3237762  63.2680411  52.3970216  52.3809297  63.2568105  52.6623508
  50.9679365  64.6453825  51.7131740  51.2090374  64.5822408  50.6520501
  49.4891490  64.9703164  51.8790038  49.2473739  65.0340833  52.9399370
  49.2701441  65.9241215  51.3990107  48.8901481  64.1856097  51.4169081
  51.8319791  65.7793939  52.2435292  51.2981328  66.2492930  53.0695460
  52.7625514  65.3475607  52.6118427  52.1443894  66.8277190  51.1777561
  51.2142597  67.2603594  50.8092716  52.7635172  67.6134304  51.6106967
  52.6786766  66.3586261  50.3515667  50.6646924  63.1411075  53.7814418
  49.6780133  62.4238702  53.9545109  51.2298958  63.8436711  54.7578161
  52.0457968  64.4091992  54.5718514  50.7006993  63.8228371  56.1086924
  49.6135000  63.8888622  56.0670088  50.9892423  62.8886618  56.5905211
  51.2343429  64.9835467  56.9239296  52.2670553  65.5659034  56.5958504
  50.5288901  65.3289474  57.9900397  49.6692460  64.8426197  58.2012190
  50.9316799  66.4330927  58.8586785  51.8654822  66.8648834  58.4985826
  49.8518385  67.5289344  58.8605718  50.1325845  68.3043713  59.5732986
  49.7152107  68.1469046  57.4582909  49.4340088  67.3721048  56.7450516
  48.9476460  68.9206417  57.4748620  50.6670420  68.5864131  57.1600462
  48.5903708  66.9597650  59.2422149  47.9175112  67.6444983  59.2430036
  51.1862972  65.9572598  60.2921436  51.4747365  66.7531626  61.1811427
  51.1032041  64.6427765  60.4850046  50.8938730  64.0556698  59.6902811
  51.3204014  64.0053217  61.7760474  51.8071063  64.6795477  62.4807722
  49.9684831  63.5365408  62.3888740  49.4424785  62.9266207  61.6544247
  50.2016196  62.7167803  63.6587134  50.7272076  63.3262253  64.3938563
  49.2425235  62.4003931  64.0687553  50.8015302  61.8386216  63.4198698
  49.0757100  64.7397187  62.6953267  48.8763062  65.2886298  61.7749807
  48.1344316  64.3947498  63.1232182  49.5791473  65.3945884  63.4065210
  52.2100251  62.7811656  61.5677986  52.0505945  62.0629872  60.5785167
  53.1620246  62.5666475  62.4748620  53.2951246  63.2056659  63.2456014
  54.0381622  61.4044561  62.3810531  54.3522586  61.1933142  63.4032379
  53.4069597  60.5923056  62.0203671  55.2703877  61.5043154  61.4953317
  55.4068789  62.4116750  60.6689457  56.1727675  60.5418698  61.6702290
  56.0191632  59.8144823  62.3539047  57.3958990  60.5063680  60.8913844
  57.9771520  59.6345733  61.1917481  57.1366976  60.4235226  59.8358984
  58.2310076  61.7484639  61.0964804  58.4146220  62.2041300  62.2291795
  58.7141696  62.3051351  59.9903802  58.5176118  61.8939266  59.0890634
  59.5293380  63.5057216  60.0361892  60.3456263  63.3226363  60.7349398
  59.9356562  63.6657632  59.0374943  58.7772731  64.7535276  60.4700644
  59.4068304  65.7494507  60.8118082  57.4441838  64.7103759  60.4607999
  56.9561358  63.8928589  60.1237919  56.6563246  65.8663284  60.8675513
  57.1084099  66.7815012  60.4852207  55.1857710  65.8026679  60.3869388
  54.7112640  66.7627168  60.5900388  55.1064346  65.5041727  58.9032106
  55.5803609  64.5439903  58.6993886  54.0615761  65.4657111  58.5951677
  55.6202279  66.2878277  58.3464326  54.4709984  64.8089299  61.1235283
  53.5612904  64.7771717  60.8185314  56.6802733  66.0438658  62.3849754
  56.2021118  67.0588325  62.8955695  57.2324983  65.0566533  63.0953979
  57.5545223  64.2231528  62.6245722  57.3411540  65.1156021  64.5491788
  56.4501702  65.5924106  64.9577136  57.4720915  63.7137635  65.1617742
  58.1744054  63.1485372  64.5490968  57.8623684  63.7990668  66.1759277
  56.1496278  62.9569045  65.2107672  55.0653834  63.5562953  65.1703856
  56.2329757  61.6310451  65.3192481  55.3896744  61.0764575  65.3563327
  57.1390520  61.1870453  65.3638661  58.5304397  65.9714544  65.0104436
  58.6563545  66.2741123  66.1966989  59.4162973  66.3312851  64.0856694
  59.3266180  65.9846679  63.1412577  60.5800792  67.1462845  64.4155508
  60.9023515  66.9372630  65.4356242  61.7346921  66.8314899  63.4642600
  61.4353849  67.2749338  62.5145906  62.6391722  67.3216394  63.8244949
  62.0107592  65.3244950  63.2642912  61.1147562  64.8479441  62.8665742
  63.1662466  65.1228427  62.2930244  64.0627812  65.5987555  62.6903047
  63.3493910  64.0563782  62.1618285  62.9147815  65.5688582  61.3307688
  62.3047267  64.6301895  64.5943769  61.4477531  64.7394041  65.2590331
  62.4944766  63.5714218  64.4180049  63.1818234  65.0840546  65.0556868
  60.2066398  68.6362968  64.3976774  59.3602962  69.0709784  63.6085668
  60.8421542  69.4114610  65.2726144  61.4526297  68.9762378  65.9493712
  60.5611121  70.8392327  65.4101657  59.4902325  71.0038004  65.5294699
  61.2837256  71.3877600  66.6513396  62.3439275  71.2927962  66.4167061
  61.0276510  72.4423754  66.7528882  60.9835584  70.6575081  67.9731841
  61.3735863  69.6409974  67.9213656  61.6431378  71.3948752  69.1280377
  61.2532473  72.4113899  69.1807845  61.4284067  70.8750203  70.0617090
  62.7212118  71.4275045  68.9705824  59.4747573  70.5384850  68.2148258
  59.0186468  69.9781540  67.3986813  59.2969285  70.0181896  69.1559797
  59.0341362  71.5343440  68.2619116  60.8012997  71.7346358  64.1892000
  59.9409224  72.5400079  63.8430992  61.9694377  71.6097341  63.5264949
  63.1436002  70.7652586  63.8205402  62.9933004  69.7633266  63.4184922
  63.2996235  70.7043653  64.8975953  64.2551017  71.5119593  63.1183697
  65.0815284  70.8420627  62.8809743  64.6194494  72.3329556  63.7358786
  63.5928286  72.0310707  61.8708852  63.4999530  71.2303497  61.1371829
  64.1121922  72.8771203  61.4208174  62.2067756  72.4632662  62.3460841
  62.1881018  73.5021394  62.6754656  61.1548478  72.2569736  61.2421383
  60.6500401  73.2292636  60.6678846  60.8232129  71.0050032  60.9295163
  61.3315284  70.2086992  61.2867479  59.8182065  70.7773961  59.8957779
  59.9758648  71.4967242  59.0921548  59.8815945  69.3559333  59.3038028
  58.8455727  69.0365219  59.1909559  60.3366107  69.4659558  58.3194476
  60.6446521  68.3195768  60.0986319  60.3196833  68.4386371  61.1322280
  60.3857964  67.3198744  59.7497897  62.1597830  68.4777604  60.0430773
  62.7851998  68.2641572  59.0095506  62.7528572  68.8015909  61.1724660
  63.7555748  68.9201880  61.1968321  62.2025228  68.9300058  62.0095699
  58.4110539  71.1590236  60.3680310  57.5829110  71.5746759  59.5678020
  58.1660155  71.0694225  61.6764074  58.8785868  70.7175608  62.2997331
  56.8752923  71.4645892  62.2487150  56.0682457  70.9240764  61.7541234
  56.8377218  71.1390678  63.7433084  57.8523363  70.8850230  64.0500949
  56.5145723  72.0383601  64.2676631  55.9105281  69.9997011  64.0820919
  54.8796515  70.3354496  63.9695432  56.1112838  69.1994502  63.3697734
  56.0929968  69.4543460  65.4897261  56.4238144  70.1816959  66.4131572
  55.8501751  68.1633575  65.6551322  55.9549571  67.7459386  66.5688518
  55.5612776  67.6019156  64.8668285  56.6863755  72.9703064  62.0432788
  55.5707490  73.4494779  61.8495952  57.8012118  73.6956462  62.0590272
  58.6815120  73.2303460  62.2283393  57.8093762  75.1372330  61.8643274
  57.1390038  75.6311609  62.5677017  59.2207055  75.6831117  62.0698854
  59.9019714  75.2045630  61.3663458  59.2224585  76.7599801  61.9012097
  59.5464746  75.4749735  63.0890283  57.3242016  75.4636551  60.4600820
  56.5419350  76.3968231  60.2692903  57.8080673  74.6993235  59.4764398
  58.5037516  73.9949229  59.6762961  57.4149190  74.9087178  58.0868454
  57.5198111  75.9636817  57.8335709  58.2909003  74.0892606  57.1388894
  58.4200579  73.0758328  57.5188653  57.8447940  74.0500337  56.1451337
  59.9581872  74.7575213  56.9146017  60.3734505  73.8154426  56.0726145
  55.9411698  74.5759289  57.9038596  55.2243438  75.2709743  57.1775969
  55.4841178  73.5311787  58.5874220  56.1154572  72.9676340  59.1387180
  54.0737365  73.1403164  58.5309312  53.7611497  73.0343539  57.4921047
  53.8592436  71.8027537  59.2454113  54.3743320  71.9208878  60.1987358
  52.7878762  71.7063168  59.4213994  54.3767296  70.5424445  58.5371670
  55.4174223  70.6927591  58.2499995  54.2767125  69.3487250  59.4678008
  53.2361776  69.1974893  59.7550530  54.6455842  68.4584101  58.9585134
  54.8764048  69.5312960  60.3595056  53.5848414  70.2750226  57.2612686
  53.6860226  71.1242598  56.5855039  53.9687141  69.3775823  56.7761462
  52.5330857  70.1318504  57.5090804  53.1952530  74.2345728  59.1729311
  52.1054227  74.5308021  58.6831433  53.6884917  74.8263580  60.2634598
  54.5835581  74.5221703  60.6190233  52.9848193  75.8994218  60.9761492
  51.9879243  75.5609847  61.2585672  53.7437330  76.2941132  62.2428732
  54.7989216  76.3367259  61.9729463  53.3981909  77.2915305  62.5146439
  53.5613574  75.3580916  63.4211315  52.4935472  75.2304423  63.5988617
  54.0076564  74.3923773  63.1838232  54.2031648  75.8903877  64.6876812
  53.5902323  76.6703474  65.4190864  55.4429280  75.4814635  64.9511241
  55.9131351  75.8082866  65.7831057  55.9072498  74.8463935  64.3177263
  52.8511587  77.1284476  60.0883314  51.8377294  77.8197653  60.1149176
  53.8935865  77.3896300  59.3135681  54.6996883  76.7840616  59.3734525
  53.9370713  78.5052235  58.3817429  53.9458620  79.4571505  58.9126448
  55.2263196  78.3900622  57.5615468  55.9902871  78.0544015  58.2628204
  55.0375062  77.6061576  56.8281007  55.7068416  79.6408584  56.8516555
  54.9369254  79.9684104  56.1530573  55.8814401  80.4219809  57.5915643
  57.2631298  79.3238535  55.9297598  58.1737766  78.3923247  57.1271998
  57.6230055  77.4859317  57.3785997  59.1466420  78.1233542  56.7157532
  58.3134544  78.9930362  58.0259418  52.7097342  78.4344506  57.4655547
  52.1544517  79.4695014  57.0811678  52.2821376  77.2059782  57.1480115
  52.8042194  76.4151111  57.4973812  51.1250806  76.9478626  56.2748280
  50.9471192  77.8091358  55.6309046  51.3871934  75.7209434  55.3913478
  51.6255234  74.9369698  56.1101547  50.4526215  75.4777765  54.8858329
  52.5174867  75.8262665  54.3550476  53.4340958  76.1525394  54.8464482
  52.7428448  74.4631104  53.7145439  51.8267439  74.1363606  53.2225150
  53.5440593  74.5346896  52.9789947  53.0192579  73.7412276  54.4830368
  52.1820016  76.8879476  53.2923053  52.0540269  77.8572788  53.7740925
  52.9944376  76.9472001  52.5680552  51.2596248  76.6122736  52.7811068
  49.8269756  76.7382455  57.0499730  48.7511462  76.6336917  56.4612009
  49.9449846  76.6612276  58.3717745  50.8558389  76.7348442  58.8019192
  48.7900362  76.4717441  59.2325806  49.1004523  76.6884093  60.2547339
  48.0277549  77.1877551  58.9254081  48.2050239  75.0770341  59.1807484
  47.0029417  74.9013868  59.3907327  49.0582179  74.0806262  58.9459734
  50.0360454  74.2787964  58.7888703  48.6088648  72.6977857  58.8467628
  47.5881498  72.5642583  59.2051070  48.6929797  72.1816678  57.3854415
  48.3137556  71.1602645  57.3534485  47.8756064  73.0538864  56.4504712
  48.2545607  74.0754182  56.4815749  47.9526934  72.6691177  55.4335587
  46.8316478  73.0444886  56.7637823  50.1464367  72.1008998  56.9369894
  50.6905598  71.4165588  57.5879191  50.1907819  71.7374917  55.9103114
  50.5995356  73.0907707  56.9913745  49.3732630  71.7162114  59.7408799
  49.2642245  70.5031434  59.5640792  50.1165554  72.2261475  60.7125689
  50.2051859  73.2266037  60.8190179  50.8891860  71.3660644  61.5991263
  51.4632312  70.6507141  61.0101906  51.8610830  72.1966720  62.4437849
  52.3726303  72.8735758  61.7595190  51.2556276  72.7752622  63.1414648
  52.8971165  71.3794686  63.2230565  53.1582378  70.5087984  62.6215170
  53.7826221  71.9979070  63.3697392  52.4041263  70.8995495  64.5895862
  51.9748684  71.6992081  65.4195795  52.4707687  69.5938137  64.8266827
  52.1571994  69.2282138  65.7144397  52.8346849  68.9729177  64.1180542
  50.0164142  70.5016017  62.5113948  49.0169973  70.9700907  63.0588524
  50.3812707  69.2249708  62.6405505  51.1797459  68.8671531  62.1360673
  49.6497129  68.3175458  63.5018890  50.2645652  67.4205201  63.5753787
  49.6040350  68.8068113  64.4748392  48.2491472  67.9220492  63.0829245
  47.8019944  68.1944122  61.9690718  47.5585290  67.2564451  64.0039341
  48.0030361  67.0282701  64.8816863  46.2033982  66.7877902  63.7763711
  46.1632671  66.3620657  62.7737508  45.8560775  65.7091508  64.7723924
  45.8831271  66.1225145  65.7806080  44.8563196  65.3287409  64.5629343
  46.5774967  64.8957938  64.6942648  45.1756358  67.8980720  63.8485157
  45.3852093  68.9255299  64.5008157  44.1064706  67.7313822  63.0840628
  44.0160573  66.9258766  62.4814970  43.0242567  68.6878273  63.1158554
  43.3983068  69.6377015  63.4978565  42.4321684  68.9189738  61.7339264
  43.1941090  69.2453413  61.0260916  41.9468485  68.0193645  61.3554193
  41.1656189  70.2082714  61.7367599  40.8921503  70.1373664  60.4371116
  42.0038323  68.0243642  64.0254926  41.4445070  66.9736831  63.6977143
  41.8352709  68.5934442  65.2117034  42.4205044  69.3672781  65.4923851
  40.8992419  68.0475584  66.1843562  41.0458263  66.9719424  66.2826531
  41.1289327  68.7001785  67.5520448  40.9774913  69.7730743  67.4334729
  40.3797952  68.3014338  68.2360739  42.5352247  68.4406769  68.1234911
  43.2726186  68.8598985  67.4389442  42.6153830  68.9362227  69.0910195
  42.7945603  66.9344349  68.2962481  41.9578800  66.5185545  68.8575935
  42.8215649  66.4888251  67.3018628  44.1117302  66.6247688  69.0334104
  44.1263757  67.2449853  69.9296345  44.0746276  65.5737926  69.3200660
  45.3483886  66.8790826  68.2312005  45.3831787  67.8529793  67.9658429
  46.1617191  66.6518160  68.7852252  45.3352187  66.3041576  67.4009073
  39.4397518  68.1624124  65.7313880  38.6805473  67.2013065  65.8631601
  39.0720920  69.3014042  65.1403128  39.7389449  70.0547880  65.0518859
  37.7031490  69.5239136  64.6600401  36.9826464  69.2876060  65.4430688
  37.5366512  70.9984045  64.2692601  38.0948130  71.1853065  63.3518604
  36.4744641  71.1621031  64.0874321  38.0163967  71.9468359  65.3559838
  37.1996191  72.3011637  66.2399590  39.2176211  72.3187389  65.3363831
  37.2904032  68.6390550  63.4689587  36.1769676  68.1043627  63.4358165
  38.2024526  68.4778454  62.5107027  39.1006967  68.9282234  62.6127634
  37.9441192  67.7140032  61.2895414  37.1461677  66.9911007  61.4592014
  37.5106908  68.6700480  60.1620914  36.7570595  69.3555297  60.5497175
  38.3844567  69.2362084  59.8394531  36.9292847  67.9379722  58.9529244
  36.8552178  66.7041812  58.9255009  36.5060778  68.7023719  57.9502131
  36.1121398  68.2744603  57.1244987  36.5805713  69.7072654  58.0190655
  39.1930774  66.9215548  60.8784818  40.0162990  67.3995758  60.0949054
  39.3288694  65.6849324  61.3936191  38.3345950  65.0158884  62.2501146
  37.5285252  64.6067759  61.6410344  37.9223817  65.7229460  62.9700096
  39.1651328  63.9422199  62.9091526  38.5419785  63.1373339  63.2989426
  39.7778078  64.3488632  63.7137468  40.0117381  63.4753142  61.7826232
  39.4345473  62.8794651  61.0755775  40.8844806  62.9086110  62.1070729
  40.4543649  64.7827271  61.1214711  41.3355715  65.2086683  61.6012078
  40.7333337  64.5798855  59.6353309  39.8705603  64.1088937  58.8868987
  41.9526499  64.9264129  59.2285523  42.6242894  65.2936024  59.8874693
  42.3546258  64.7899771  57.8390223  43.3367120  64.3173461  57.8240012
  41.6311709  64.1390380  57.3481141  42.4276365  66.1035557  57.0851777
  43.1394093  66.2138570  56.0858344  41.7257053  67.1125169  57.5927602
  41.1568508  66.9492690  58.4112063  41.6761083  68.4316267  56.9666488
  41.2860802  68.3452423  55.9524915  40.7623909  69.3685852  57.7646934
  40.4399453  68.8174457  58.6480808  41.3721909  70.2188659  58.0700894
  39.5314873  69.8712988  56.9982604  38.9331877  68.9921224  56.7591218
  38.9672331  70.5238907  57.6644736  39.8658657  70.6229156  55.7140208
  40.6761347  71.5806724  55.7726645  39.3005013  70.2576425  54.6494756
  43.0364545  69.0918472  56.7786490  43.2582793  69.7660004  55.7721019
  43.9344092  68.9246520  57.7479354  43.6867940  68.4464689  58.6024101
  45.2687557  69.5096775  57.6434624  45.1824901  70.5638277  57.3799766
  46.0339506  69.3963459  58.9737412  45.7647047  68.4482479  59.4392689
  47.1044720  69.4089116  58.7689829  45.7060213  70.5413730  59.9593433
  44.9732985  71.4781079  59.6304802  46.2648848  70.4611757  61.1643445
  46.0860737  71.1813625  61.8495141  46.8653024  69.6804870  61.3882296
  46.0593867  68.8665423  56.4879496  46.6863811  69.5705100  55.6916848
  45.9639616  67.5406087  56.3624620  45.4429216  67.0117205  57.0472203
  46.6635210  66.8086559  55.3063845  47.7038606  67.1337437  55.2958702
  46.6239241  65.2905909  55.5824113  45.5890162  64.9484725  55.5869526
  47.1764947  64.7646741  54.8038372  47.0782572  65.0850375  56.5516525
  46.0781117  67.1381168  53.9324338  46.8145718  67.2511004  52.9505646
  44.7578297  67.2946408  53.8687029  44.1855519  67.1562432  54.6893390
  44.0941329  67.6460494  52.6098278  44.4054211  66.9496253  51.8312442
  42.5728960  67.5814780  52.7431350  42.3071364  68.1986420  53.6013772
  42.1599045  68.0236619  51.8364865  42.0086605  66.1936887  52.9277968
  42.3251176  65.5669245  52.0940567  42.3885722  65.7761344  53.8602224
  40.4922947  66.2426576  52.9764761  40.1576531  67.2655604  53.1490564
  40.0771565  65.8788053  52.0365978  40.0014664  65.4020665  54.0598450
  40.1847153  64.4118750  53.9821273  39.3185734  65.8413028  55.1164195
  39.0176588  67.1349296  55.2494728  39.3097361  67.7935921  54.5416913
  38.4992712  67.4491811  56.0573217  38.9556691  64.9802492  56.0594540
  39.1990540  64.0042353  55.9685649  38.4378591  65.3051432  56.8634536
  44.5103834  69.0569745  52.1989046  44.7876253  69.3140443  51.0296942
  44.5842853  69.9519862  53.1771513  44.3406972  69.6931920  54.1225558
  44.9812737  71.3269893  52.9193052  44.3205167  71.7631260  52.1701162
  44.8983365  72.1737172  54.2003111  43.8895979  72.0631612  54.5982092
  45.6154784  71.7608436  54.9097777  45.1969147  73.6496021  53.9784553
  44.9849920  74.1664812  54.9144177  46.2411496  73.8043368  53.7069178
  44.3247776  74.2364306  52.8951764  43.1559986  74.5322796  53.1288062
  44.8735058  74.3623454  51.6838763  44.3311542  74.7495863  50.9249292
  45.8282600  74.0697392  51.5324585  46.4036031  71.3470437  52.3725375
  46.6893009  72.0408466  51.3886207  47.2859850  70.5660762  52.9900868
  47.0311369  70.0496637  53.8198277  48.6682843  70.5099783  52.5402337
  49.0737976  71.5208502  52.4978517  49.5363870  69.6731065  53.4874977
  49.4554203  70.1675280  54.4555323  49.1025637  68.6752619  53.5523330
  51.0181384  69.5627138  53.0910052  51.0996790  68.9648590  52.1832489
  51.6078441  70.9515521  52.8410121  51.5270776  71.5498786  53.7485258
  52.6570516  70.8563959  52.5613523  51.0602766  71.4396006  52.0347374
  51.7863330  68.8600044  54.1603707  51.3795850  67.8587687  54.3024358
  52.8339783  68.7879331  53.8682298  51.7072711  69.4193692  55.0925505
  48.7575344  69.9822305  51.1093817  49.5203438  70.5097974  50.3051759
  47.9466584  68.9754964  50.7844207  47.3454667  68.5746676  51.4901148
  47.9253431  68.3910713  49.4387566  48.9285484  68.0723346  49.1557632
  46.9913094  67.1644868  49.4070941  45.9808984  67.4694453  49.6794359
  46.9837534  66.7387120  48.4037203  47.3481150  66.4170600  50.1157139
  47.4684643  69.4404634  48.4102276  48.0087504  69.5260230  47.2996856
  46.4630574  70.2294829  48.7854956  46.0084355  70.0813945  49.6751517
  45.9518055  71.2950608  47.9099881  45.6998635  70.8725259  46.9373172
  44.6917067  71.9549541  48.5013475  44.9929277  72.4642817  49.4167439
  44.3408479  72.6892492  47.7762207  43.5707838  70.9741519  48.8123955
  43.7199525  70.1082541  48.1673603  43.6913070  70.6758312  49.8538277
  42.1704648  71.5263508  48.6027691  42.1497277  72.0086645  47.6255064
  41.4801494  70.6828135  48.6057704  41.7359941  72.4893771  49.6085372
  42.3279236  72.6135403  50.4174268  40.5950133  73.1841925  49.5398690
  39.7515523  73.0246451  48.5138754  39.9751316  72.3707605  47.7772973
  38.8950102  73.5588005  48.4805089  40.3073874  74.0746483  50.4853450
  40.9514580  74.2212842  51.2493941  39.4462564  74.6000040  50.4348119
  47.0463613  72.3385665  47.6911194  47.2378611  72.8151544  46.5774167
  47.8089205  72.6238337  48.7444704  47.6194733  72.1825079  49.6329751
  48.8972492  73.5880695  48.6708653  48.5387534  74.5368207  48.2715519
  49.5156344  73.8171840  50.0502925  49.6823632  72.8506071  50.5257197
  50.8403680  74.5605699  49.9335476  50.6743616  75.5275070  49.4586001
  51.2614014  74.7120643  50.9274696  51.5344564  73.9747443  49.3309293
  48.5400869  74.6057508  50.9303121  48.5694342  75.6452479  50.6036852
  47.5427331  74.2001073  50.7604933  48.8711827  74.5310827  52.4100138
  49.8682774  74.9370040  52.5806886  48.1417556  75.1106922  52.9757771
  48.8415786  73.4918624  52.7374962  49.9662846  73.1100485  47.7079279
  50.4924574  73.8916477  46.8962568  50.2950852  71.8221340  47.8008807
  49.8830132  71.2409050  48.5167500  51.2984663  71.2322615  46.9253204
  52.2212315  71.8115347  46.9576645  51.6172461  69.7731059  47.3220199
  50.6845605  69.2176653  47.4204202  52.4917730  69.1149355  46.2544753
  53.4249022  69.6695878  46.1558259  52.7095488  68.0872834  46.5453453
  51.9652186  69.1180490  45.3000999  52.3168953  69.7403180  48.6580850
  51.6728918  70.1845479  49.4170457  52.5370098  68.7075364  48.9282914
  53.2470419  70.3051486  48.5956789  50.8527677  71.2873824  45.4682043
  51.6349561  71.6317276  44.5975587  49.5965783  70.9586641  45.2019590
  48.9740592  70.6405694  45.9309206  49.0980201  70.9915425  43.8338099
  49.7381269  70.3946274  43.1841525  47.6863103  70.4145297  43.7910019
  47.6021682  69.5621641  44.4651623  46.9556899  71.1729834  44.0721460
  47.1847640  69.8152660  42.1598522  45.9697068  69.4168770  42.5256671
  49.1289118  72.4285400  43.2947275  49.5222495  72.6627977  42.1448654
  48.7787056  73.3917291  44.1541246  48.5065426  73.1560920  45.0977886
  48.7773486  74.7979828  43.7644404  48.1625676  74.9114339  42.8715393
  48.3484675  75.3842454  44.5771252  50.1733444  75.3098531  43.4703872
  50.4016929  76.0175081  42.4754623  51.1197398  74.9333258  44.3203313
  50.8929465  74.4008273  45.1480447  52.5011391  75.3472237  44.1231148
  52.5370543  76.4250504  43.9646882  53.3443882  75.0081252  45.3314190
  53.4980516  73.9294630  45.3626556  54.6753555  75.7014130  45.2621434
  54.5225098  76.7802036  45.2313440  55.2660805  75.4436181  46.1411683
  55.2045348  75.3841500  44.3635812  52.6552750  75.4383484  46.5095297
  53.1825558  75.2276204  47.2835898  53.0705744  74.7085295  42.8557683
  53.8329741  75.3464805  42.1281927  52.6716583  73.4690562  42.5701846
  52.0651888  72.9674791  43.2032047  53.1322419  72.7829832  41.3583680
  54.2216482  72.7844609  41.3224374  52.6272830  71.2881361  41.2945345
  51.5877618  71.2565280  41.6208714  52.7331921  70.7274730  39.8626535
  53.7725663  70.7583298  39.5357742  52.3787987  69.6967932  39.8483358
  52.1232125  71.3302552  39.1898385  53.4640359  70.4284561  42.2461546
  53.3593885  70.8048978  43.2637216  53.1172553  69.3959592  42.2038126
  54.5119382  70.4716990  41.9492847  52.6326674  73.5642515  40.1452917
  53.3722735  73.7788319  39.1909391  51.3716640  73.9833650  40.1829253
  50.7581665  73.7231184  40.9418666  50.8126909  74.7558470  39.0725700
  50.9272523  74.2000372  38.1419518  49.3345403  75.0225510  39.2998887
  48.8971799  74.1301690  39.7476268  49.2468969  75.8574760  39.9951002
  48.6011700  75.3546998  38.0179343  49.1034989  76.1963341  37.5410504
  48.6446375  74.4863672  37.3605066  46.9070747  75.7783029  38.3115371
  47.1177240  77.0007117  39.6247902  47.7251009  77.8280458  39.2577610
  46.1417134  77.3758209  39.9326815  47.6136436  76.5369061  40.4774621
  51.5958499  76.0671202  38.8573832  51.9413513  76.4079583  37.7298442
  51.9467501  76.7489152  39.9450806  51.6598037  76.4219969  40.8566098
  52.7318813  77.9814818  39.8654900  52.2432483  78.7336064  39.2460988
  52.9416594  78.5685009  41.2842570  53.4382915  77.8301293  41.9137520
  53.5591621  79.4643930  41.2196973  51.9752871  78.8244598  41.7186633
  54.0842677  77.6606036  39.2202999  54.5733607  78.4049136  38.3519401
  54.6844033  76.5480117  39.6527968  54.2589150  75.9768506  40.3689211
  55.9656089  76.1277286  39.1059172  56.6771403  76.9435867  39.2331881
  56.3081985  75.2570068  39.6650016  55.8839902  75.7675200  37.6292781
  56.8166298  76.0427215  36.8774500  54.7885948  75.1191166  37.2242498
  54.0852467  74.8660112  37.9034687  54.5755418  74.7353379  35.8304749
  55.4336408  74.1675023  35.4708528  53.3112152  73.8599324  35.6914019
  52.4922837  74.4111452  36.1535867  53.1180662  73.7503005  34.6242682
  53.4218842  72.4627069  36.3404515  53.7345121  72.5782596  37.3782434
  52.4247826  72.0235297  36.3086554  54.4025573  71.5493689  35.6132941
  54.0450965  71.0113967  34.5369964  55.5378472  71.3934691  36.1053327
  54.4288366  75.9823398  34.9552943  54.9623912  76.0399173  33.8495157
  53.6767353  76.9652725  35.4492211  53.2659489  76.8588555  36.3657523
  53.4590321  78.2236355  34.7327485  52.8960800  78.0360927  33.8184117
  52.6709134  79.1987772  35.5983729  52.7535033  78.7850841  36.6034282
  53.2193560  80.1393457  35.5469759  51.2076908  79.4475071  35.2719957
  50.6298280  78.5326969  35.4035169  50.6960624  80.5063674  36.2196645
  51.2731765  81.4216849  36.0883937  49.6455297  80.7064400  36.0088259
  50.7997102  80.1562524  37.2466879  51.0512292  79.9029556  33.8289436
  51.4359162  79.1326608  33.1605415  49.9966651  80.0759498  33.6143072
  51.6088428  80.8270481  33.6765660  54.7810614  78.8981262  34.4173981
  55.0603236  79.2559534  33.2717008  55.6087207  79.0247665  35.4452441
  55.3098473  78.7410471  36.3673489  56.8951759  79.6840008  35.3111993
  56.7686491  80.6487520  34.8199302  57.5133098  79.9132785  36.6784236
  56.7189564  80.0396768  37.4140359  58.1214898  79.0492175  36.9460348
  58.3265950  81.0750637  36.6569652  58.7126665  81.2114764  37.5252625
  57.8831328  78.9902205  34.3843337  58.4958591  79.6447929  33.5357475
  58.0404189  77.6739903  34.5237082  57.5676840  77.1631791  35.2556187
  58.9672515  76.9461889  33.6576323  59.9254219  77.4655388  33.6407704
  59.1955183  75.5133126  34.1507051  59.6422188  75.6237607  35.1388140
  58.2213245  75.0334746  34.2445231  60.1110039  74.6465432  33.2682546
  59.6378345  74.5060686  32.2964118  61.4518630  75.3147458  33.0828115
  61.9258771  75.4551455  34.0542524  62.0869678  74.6884309  32.4563353
  61.3123050  76.2838325  32.6037552  60.3077938  73.2730600  33.8698754
  59.3426271  72.7753731  33.9640057  60.9588221  72.6831125  33.2247201
  60.7639685  73.3693565  34.8551320  58.4852212  76.9237214  32.2127652
  59.2905449  77.0357305  31.2914175  57.1837442  76.7516251  32.0060902
  56.5456685  76.5822014  32.7704554  56.6544295  76.7332737  30.6455928
  57.1839268  75.9812256  30.0606523  55.1645614  76.3989050  30.6360736
  54.6599827  77.1161765  31.2833920  54.8050817  76.5171771  29.6138769
  54.8653317  74.9714542  31.1222166  55.1865581  74.8865390  32.1603418
  53.7899378  74.8046983  31.0603916  55.7093958  73.7353526  30.1424695
  54.7447390  73.8903482  28.7458881  54.8118951  74.9107992  28.3687028
  55.0966851  73.1972200  27.9818149  53.7078429  73.6622880  28.9927410
  56.9062226  78.0653683  29.9567407  57.2405116  78.0969105  28.7745723
  56.7816348  79.1570634  30.7167569  56.4823811  79.0632853  31.6768362
  57.0087074  80.5023424  30.1894537  56.4073442  80.6556912  29.2933814
  56.6116490  81.5611672  31.2360504  57.2117861  81.4262423  32.1359008
  56.7858236  82.5575223  30.8297993  55.5560532  81.4498308  31.4838832
  58.4784057  80.6577836  29.7785706  58.7788490  81.1314970  28.6847939
  59.3899993  80.2082633  30.6361226  59.1166981  79.8426830  31.5370981
  60.8135022  80.3039808  30.3314329  61.0354109  81.3461403  30.1017393
  61.6491080  79.8822969  31.5222371  61.4446610  78.8380857  31.7587204
  62.7063923  80.0002636  31.2848891  61.3984723  80.5046426  32.3812871
  61.1823631  79.4753253  29.0983746  62.0922721  79.8390300  28.3428711
  60.4835315  78.3604047  28.8934835  59.7769032  78.0714177  29.5547417
  60.7379757  77.5074694  27.7344070  61.8127122  77.3880680  27.5973525
  60.1129681  76.1242982  27.9264462  59.1110682  76.3046953  28.3160007
  60.0421382  75.6215081  26.9619332  60.8844442  75.2467948  28.8996591
  60.9788165  75.7677693  29.8524342  60.1585804  73.9374693  29.1113157
  60.0642280  73.4156714  28.1589905  60.7212063  73.3183559  29.8100657
  59.1662712  74.1331183  29.5176953  62.2845520  75.0118887  28.3673959
  62.7965511  75.9676776  28.2559330  62.8380855  74.3829144  29.0645998
  62.2270087  74.5159571  27.3984585  60.1801498  78.1434941  26.4662573
  60.8073035  78.0876347  25.4091537  58.9973032  78.7386446  26.5891228
  58.5196094  78.6990807  27.4781350  58.3258701  79.3886327  25.4733818
  58.3116993  78.6860070  24.6401859  56.8808363  79.7251019  25.8546034
  56.8786218  80.4348799  26.6818339  56.3714950  80.1653990  24.9973928
  56.3627265  78.8147803  26.1562257  59.0521197  80.6501170  25.0013850
  59.2256245  80.8547570  23.8016502  59.4205767  81.5184894  25.9396113
  59.1499796  81.3563510  26.8990839  60.1056549  82.7676645  25.6146566
  59.4887383  83.2479977  24.8551876  60.1658342  83.6784152  26.8439928
  60.7876461  83.2150692  27.6099957  60.5931493  84.6410178  26.5631046
  59.1596099  83.8284373  27.2352796  61.5019610  82.5748729  25.0099371
  61.7176347  82.9039510  23.8389416  62.4382741  82.0291168  25.7853028
  62.2416105  81.7457388  26.7345761  63.7850379  81.8277559  25.2697468
  63.6814770  81.4218005  24.2634791  64.2545000  82.8101203  25.2181234
  64.6688608  80.8989380  26.0899957  64.5201313  79.6615090  25.9526939
  65.5050704  81.3572049  26.8653583  61.2390959  70.7374700  31.6571490
  62.5439194  69.0001533  31.0938167  64.9105439  70.0648265  33.0633498
  65.4408906  71.2342529  37.0491708  66.1552974  76.5957875  33.5545905
  67.9558577  75.3052748  32.8500876  62.1230074  69.7581231  31.9357008
  62.5248538  69.6999137  33.4065445  63.7717523  70.5330322  33.7697024
  64.1134832  70.4365058  35.2422552  65.0196964  71.5600885  35.7354636
  64.2686655  72.9043774  35.7586553  65.1776501  74.1589682  35.8776630
  64.4382216  75.5257097  35.6590877  63.1590060  75.7056830  36.5685292
  62.5094052  77.0722153  36.2627936  63.2024496  78.1530143  35.8045534
  64.5504363  78.1142933  35.5747678  65.1900905  79.2330013  35.1153475
  66.7069615  79.3318002  34.8164794  67.4951203  78.0115699  35.1185057
  66.6271560  76.7318478  34.9310382  65.3635196  76.7967274  35.8355064
  63.4492390  75.6871530  38.0836673  66.8793776  75.8760342  32.6199457
  66.1568307  75.8636870  31.2131097  65.7885605  74.3974999  30.7913547
  64.6908558  73.6550608  31.5951592  67.0587541  76.5133483  30.1141341
  64.8469432  76.7100171  31.2086197  66.8759077  79.7468632  33.3416022
  61.6877142  70.0650852  34.0017260  62.7120308  68.6600452  33.6736405
  63.5935486  71.5771901  33.5106737  63.1857048  70.4671065  35.8136883
  64.6066102  69.4818753  35.4259302  65.8894852  71.6400934  35.0827066
  63.6956491  72.9876968  34.8349865  63.5743463  72.8983977  36.5985798
  65.9684199  74.0775852  35.1323483  65.6329000  74.1651328  36.8681348
  64.0910910  75.5317462  34.6254146  62.4455380  74.9149086  36.3352475
  61.4464497  77.1777541  36.4206515  62.6683380  79.0723091  35.6163331
  64.5911742  80.1156381  34.9485406  67.1227020  80.1232303  35.4400725
  67.8476495  78.0445567  36.1497210  68.3566574  77.9545048  34.4533512
  67.2166670  75.8550318  35.1976832  65.7007320  76.8177097  36.8715477
  66.6996078  73.8028046  30.8639654  65.4828594  74.4158944  29.7454390
  66.0143895  71.9280192  37.3828672  68.0041530  75.9742445  30.0540250
  66.5503970  76.4640205  29.1508938  67.2502571  77.5551144  30.3708614
  64.1567199  76.3171213  31.9559314  64.3839762  76.6569372  30.2236618
  65.0839027  77.7478829  31.4426427  63.9113687  74.7375592  38.3536835
  62.5152969  75.8061548  38.6332997  64.1256331  76.5048185  38.3337240
  66.3201897  80.6658035  33.1560347  66.4948111  78.9556088  32.6959917
  67.9325072  79.9125666  33.1294000  64.7416480  70.1070757  32.1193375
  64.8814937  72.5824735  31.5664064  64.7036428  73.9981650  32.6298949
  63.7153663  73.8625769  31.1547693  37.9104436  24.8234098  50.6140186
  57.2833291  42.1351949 112.9773967  56.6094989  42.4383646 113.5858924
  57.6699113  42.9381029 112.6279424  61.2490031  39.7137433 114.2513790
  61.9440936  40.3344125 114.4701104  61.5913182  38.8632784 114.5266168
  55.3404900  39.8199184 113.1588883  54.7678867  40.4389371 112.7059355
  55.9137694  40.3698546 113.6928805  58.5602160  40.1036334 114.2897466
  59.4932833  40.0381896 114.4930341  58.4725373  40.9392601 113.8311998
  61.1890176  39.4202205 111.2501413  61.1103808  39.0862068 112.1437171
  62.0099843  39.9123973 111.2492886  58.7594128  36.7370200 110.8711391
  59.4629978  36.9420203 111.4869047  58.0356777  37.3046962 111.1360475
  60.6680826  37.1752729 112.9209852  61.5026429  36.7433928 112.7387326
  60.5065168  37.0034743 113.8486746  61.9641623  49.4985285 118.9423444
  61.4006488  49.4075222 118.1739732  61.8494018  48.6785190 119.4225936
  67.5441181  53.1656253 114.2537909  66.8929161  53.7510333 113.8671923
  68.3385544  53.6962448 114.3132946  61.4696808  50.2545390 114.6525043
  62.2427684  49.7074377 114.5137919  61.8222207  51.1189639 114.8639505
  63.8063086  46.4138056 112.2843493  64.0588607  45.8919577 111.5226956
  62.8687645  46.2504201 112.3870177  68.8506369  45.4173834 120.0918236
  69.6369458  44.9993258 119.7408653  69.1145073  46.3219927 120.2599885
  69.0216446  50.8546685 114.7906893  68.3862279  50.9281311 115.5027798
  68.6913853  51.4440284 114.1125972  63.5259375  48.3166162 114.4867868
  63.4095633  47.6411065 115.1548952  63.6361635  47.8298536 113.6700021
  65.8690916  47.7776309 118.1914557  65.5049123  47.2506930 118.9027479
  66.7258032  47.3874778 118.0181043  65.5096403  42.8066209 113.1875906
  65.6770805  43.6746445 113.5546377  65.3193572  42.9693490 112.2637195
  65.4885624  45.2623866 114.1722573  65.3685249  45.7080917 115.0108053
  64.7938212  45.6109184 113.6136111  71.1870690  45.7345339 115.0002907
  72.0988546  45.9672726 114.8250604  70.6780337  46.3182384 114.4377985
  65.3468234  50.4545566 119.6566573  65.8106580  50.7333269 118.8671196
  65.0825032  49.5529011 119.4739664  64.2837120  46.5768718 116.4656138
  64.9861164  47.0289762 116.9330065  63.9517749  45.9352537 117.0936032
  65.5230885  53.3909661 116.5418244  65.3876560  54.2361197 116.9703091
  66.0640697  53.5928939 115.7784177  58.9760282  50.9085099 117.1146169
  59.4884803  51.7028349 117.2651733  59.6282995  50.2111389 117.0479770
  60.7855167  54.0250855 119.1968922  60.9621795  54.9468820 119.0089906
  61.5812000  53.7109275 119.6263302  56.9409199  49.2373753 117.8905739
  57.7784421  49.6470762 117.6739447  57.1187467  48.2973195 117.8605933
  68.8373631  46.9048834 113.5789572  68.3220255  47.6753439 113.8177960
  68.5650940  46.2313970 114.2022634  66.4220742  41.7498535 118.6374811
  65.5662339  41.3605385 118.4580449  66.8347694  41.8290496 117.7774596
  73.8107905  49.6581189 115.5142746  73.0337348  49.3192348 115.0697908
  74.4899386  49.6633812 114.8397711  68.6259934  44.7775926 115.4049353
  68.3210070  45.0922075 116.2559497  69.5790376  44.8557346 115.4476686
  67.0706366  50.9366149 117.0542307  66.5427728  50.2018909 116.7415545
  66.5693869  51.7140826 116.8082276  62.1294681  43.6290277 113.4344804
  61.2931993  43.9664963 113.7554079  61.9899451  43.4939256 112.4971941
  65.2158966  48.7546360 110.0577280  64.3086028  48.5235613 110.2568429
  65.7129998  47.9583979 110.2451262  68.1227045  57.4643867 112.9773967
  67.4488744  57.7675564 113.5858924  68.5092867  58.2672947 112.6279424
  68.1220550  46.3600414 117.5974316  68.8692369  46.8721811 117.2881438
  68.3912139  46.0384467 118.4578710  66.3947200  48.8558955 114.5801270
  65.4858419  48.5717987 114.6773740  66.4242284  49.2758033 113.7204577
  70.5699387  43.3957530 119.5793105  69.8322144  42.8834916 119.9103348
  70.8226160  42.9557912 118.7676382  66.0923288  50.3967698 111.9189349
  65.6542717  49.6803557 111.4594986  66.8333728  50.6243813 111.3574440
  62.8824454  45.0864635 118.4401445  62.0692319  45.3858805 118.8466637
  63.3783448  44.6920324 119.1575927  74.2096402  48.6724895 117.9765668
  74.0714301  48.8626491 117.0486857  73.8532621  49.4344278 118.4333719
  63.1498832  51.9585421 120.1697672  63.9439431  51.4635741 119.9680247
  62.4390525  51.4303284 119.8065378  59.4581596  46.1028503 116.2457425
  58.5279184  46.0412958 116.4627387  59.5539068  45.5804455 115.4494066
  66.3218260  57.6323539 115.1921046  66.4970016  57.1611582 116.0066668
  65.6351048  58.2589305 115.4202306  70.2134515  49.2552080 111.5121407
  69.5963686  48.5298908 111.4154459  69.7451004  50.0161440 111.1688481
  62.0033061  43.4737504 110.6342711  61.1262527  43.3526305 110.2704958
  62.4790814  42.6823582 110.3821600  69.5823418  50.3930111 118.0977860
  68.6479697  50.5131574 117.9282565  69.7600086  49.4902578 117.8337870
  72.9695969  46.2347430 118.6327894  73.4356421  47.0675422 118.5588197
  73.4203470  45.7692412 119.3373153  71.0372200  52.5791252 115.6314046
  71.3132044  52.4647846 116.5407920  70.1676699  52.1808737 115.5926219
  68.0068430  55.7545788 116.5361908  68.5356196  55.2438242 115.9232071
  68.2696649  55.4388318 117.4007442  56.7311755  45.0679359 116.0755617
  57.0265196  44.1590038 116.0222670  55.8299791  45.0467099 115.7536619
  61.5741420  43.0366427 116.5670419  61.9137492  43.5652348 115.8449028
  62.0213540  43.3746833 117.3428986  63.5609567  41.5341048 114.7663712
  64.2817929  41.9122301 114.2627429  62.9374871  42.2529925 114.8698690
  67.7040690  42.2386197 115.7022044  67.9204304  43.1210835 115.4010873
  67.2234757  41.8472411 114.9727686  72.0883786  55.0429350 114.2513790
  72.7834691  55.6636043 114.4701104  72.4306936  54.1924702 114.5266168
  73.9875209  52.4929056 115.7801121  74.5126533  52.8316329 115.0550441
  73.8997562  51.5576071 115.5964255  58.1508209  54.7512580 120.1421002
  58.9766229  54.4516352 119.7619645  57.8002261  53.9820202 120.5910790
  62.6803249  52.6542972 115.6877136  62.8291369  53.3378436 115.0343809
  63.4869692  52.6348062 116.2026592  60.4355882  48.6808149 116.6938205
  60.1901924  47.7770479 116.8918415  60.6051796  48.6825300 115.7517683
  59.7051529  44.4136507 114.1924366  59.0120774  44.4880862 113.5364402
  59.4603281  43.6496850 114.7145883  66.1798654  55.1491102 113.1588883
  65.6072621  55.7681289 112.7059355  66.7531448  55.6990464 113.6928805
  69.3995914  55.4328252 114.2897466  70.3326587  55.3673814 114.4930341
  69.3119127  56.2684519 113.8311998  72.0283931  54.7494122 111.2501413
  71.9497562  54.4153986 112.1437171  72.8493598  55.2415890 111.2492886
  66.5645453  46.4851915 110.5004936  67.5104558  46.3558123 110.5693354
  66.1859698  45.7466577 110.9774364  64.7488370  44.4101891 110.4359821
  63.8419825  44.1135004 110.5122535  65.0264351  44.1131709 109.5694107
  66.3650436  38.9538781 116.5904062  65.5551164  38.6085866 116.9659308
  67.0534853  38.6446325 117.1791674  63.5187155  41.2688826 110.5771800
  64.3806319  41.5943725 110.8367618  63.7037499  40.4820322 110.0644866
  71.6719791  40.1417353 117.7207023  71.0918460  40.8002157 117.3385076
  71.4055724  39.3194697 117.3094441  70.4544669  42.3017443 116.7763372
  69.5670524  42.5867094 116.5583566  70.8698658  42.1411207 115.9290648
  73.8059205  42.3263964 120.4917711  74.5819595  42.8160417 120.7642328
  73.0807339  42.7522018 120.9489580  69.5987883  52.0662118 110.8711391
  70.3023733  52.2712120 111.4869047  68.8750531  52.6338880 111.1360475
  70.4285693  47.8171979 116.9913662  70.3720894  48.2740531 116.1521294
  70.9814035  47.0562664 116.8136504  74.2390499  43.6061711 117.8163781
  73.9827433  43.2058347 118.6471989  73.6143367  44.3205505 117.6913920
  71.5074580  52.5044647 112.9209852  72.3420184  52.0725846 112.7387326
  71.3458923  52.3326661 113.8486746  71.1620472  49.0076760 114.2866191
  71.1069276  48.8421032 113.3454635  70.5366527  49.7152793 114.4428381
  64.4716598  38.5084869 113.8651509  64.4595267  39.4526709 114.0219780
  65.3640020  38.3255015 113.5710970  72.8426816  58.8029422 110.6342711
  71.9656282  58.6818223 110.2704958  73.3184569  58.0115500 110.3821600
  75.5882125  59.7393809 110.4359821  74.6813580  59.4426922 110.5122535
  75.8658106  59.4423627 109.5694107  74.3580909  56.5980744 110.5771800
  75.2200073  56.9235642 110.8367618  74.5431253  55.8112240 110.0644866
  75.3110352  53.8376787 113.8651509  75.2989022  54.7818627 114.0219780
  76.2033774  53.6546932 113.5710970  57.2833292  19.1414072  99.7019273
  56.6094991  19.4445769 100.3104231  57.6699114  19.9443152  99.3524730
  61.2490033  16.7199555 100.9759096  61.9440937  17.3406248 101.1946411
  61.5913183  15.8694906 101.2511474  55.3404901  16.8261307  99.8834190
  54.7678868  17.4451494  99.4304662  55.9137695  17.3760669 100.4174112
  58.5602161  17.1098457 101.0142772  59.4932834  17.0444019 101.2175648
  58.4725374  17.9454724 100.5557305  61.1890178  16.4264327  97.9746720
  61.1103809  16.0924191  98.8682478  62.0099844  16.9186095  97.9738192
  58.7594129  13.7432323  97.5956698  59.4629980  13.9482325  98.2114354
  58.0356778  14.3109085  97.8605782  60.6680827  14.1814852  99.6455158
  61.5026431  13.7496050  99.4632633  60.5065170  14.0096866 100.5732053
  69.2965102  24.6984503 109.7410335  69.9343512  24.5791250 109.0373675
  69.1785945  25.6465347 109.7998287  61.9641624  26.5047408 105.6668751
  61.4006489  26.4137345 104.8985038  61.8494019  25.6847312 106.1471243
  67.5441183  30.1718375 100.9783215  66.8929162  30.7572456 100.5917229
  68.3385545  30.7024570 101.0378253  61.4696810  27.2607512 101.3770350
  62.2427686  26.7136500 101.2383226  61.8222209  28.1251762 101.5884811
  63.8063088  23.4200179  99.0088800  64.0588608  22.8981700  98.2472263
  62.8687647  23.2566324  99.1115483  68.8506370  22.4235957 106.8163543
  69.6369460  22.0055380 106.4653960  69.1145075  23.3282049 106.9845191
  69.0216448  27.8608807 101.5152200  68.3862281  27.9343434 102.2273104
  68.6913854  28.4502406 100.8371279  74.2514798  22.3611190 107.7196521
  74.9839969  21.7910407 107.9534351  73.4954153  21.9732791 108.1603027
  63.5259376  25.3228285 101.2113175  63.4095634  24.6473188 101.8794259
  63.6361636  24.8360658 100.3945328  65.8690917  24.7838432 104.9159864
  65.5049124  24.2569053 105.6272785  66.7258033  24.3936901 104.7426349
  65.5096404  19.8128331  99.9121212  65.6770807  20.6808568 100.2791684
  65.3193573  19.9755613  98.9882502  65.4885625  22.2685989 100.8967879
  65.3685250  22.7143040 101.7353360  64.7938213  22.6171307 100.3381417
  63.2492517  35.0389631 104.5458011  63.1716547  35.9897456 104.6246491
  62.6454161  34.6935503 105.2032937  71.1870691  22.7407462 101.7248213
  72.0988547  22.9734849 101.5495911  70.6780338  23.3244506 101.1623292
  69.7940274  27.7233280 109.1161795  69.1649136  27.8878995 108.4137863
  69.4065936  28.1374890 109.8872759  73.6729505  28.6587718 106.4706159
  72.9880544  29.0386620 105.9203192  73.7573355  29.2683045 107.2038106
  65.3468235  27.4607689 106.3811880  65.8106581  27.7395392 105.5916502
  65.0825034  26.5591133 106.1984971  64.2837121  23.5830841 103.1901445
  64.9861165  24.0351885 103.6575371  63.9517750  22.9414660 103.8181338
  72.0426265  29.1819633 111.2423859  72.8643709  28.7799820 110.9606541
  72.0388668  29.0787867 112.1939975  65.5230886  30.3971784 103.2663550
  65.3876561  31.2423319 103.6948398  66.0640699  30.5991061 102.5029484
  58.9760283  27.9147222 103.8391475  59.4884804  28.7090472 103.9897040
  59.6282996  27.2173512 103.7725077  60.7855168  31.0312978 105.9214229
  60.9621797  31.9530943 105.7335212  61.5812002  30.7171397 106.3508608
  61.9086484  32.5491152 111.9224571  62.4593909  32.4208215 111.1501565
  61.0697960  32.8486041 111.5719464  56.9409200  26.2435876 104.6151046
  57.7784422  26.6532884 104.3984754  57.1187468  25.3035318 104.5851240
  68.8373632  23.9110957 100.3034879  68.3220256  24.6815561 100.5423266
  68.5650941  23.2376093 100.9267940  66.4220743  18.7560657 105.3620117
  65.5662340  18.3667508 105.1825756  66.8347695  18.8352618 104.5019903
  73.8107907  26.6643311 102.2388052  73.0337349  26.3254471 101.7943214
  74.4899387  26.6695934 101.5643017  68.6259936  21.7838049 102.1294660
  68.3210071  22.0984198 102.9804803  69.5790378  21.8619469 102.1721993
  67.0706367  27.9428272 103.7787614  66.5427729  27.2081032 103.4660851
  66.5693870  28.7202948 103.5327582  72.0499213  26.1377292 108.8954660
  71.3922888  26.8276554 108.9834789  72.8539613  26.5273724 109.2388647
  70.8604672  24.4921665 106.9458602  71.3736554  25.1251657 107.4480312
  71.5105896  23.8922861 106.5801962  62.1294682  20.6352399 100.1590111
  61.2931994  20.9727086 100.4799385  61.9899452  20.5001379  99.2217248
  65.2158968  25.7608482  96.7822587  64.3086029  25.5297736  96.9813736
  65.7130000  24.9646101  96.9696569  68.1227046  34.4705989  99.7019273
  67.4488745  34.7737686 100.3104231  68.5092868  35.2735070  99.3524730
  68.1220551  23.3662536 104.3219623  68.8692370  23.8783934 104.0126745
  68.3912140  23.0446589 105.1824016  66.3947201  25.8621077 101.3046577
  65.4858420  25.5780110 101.4019047  66.4242285  26.2820156 100.4449884
  71.6266468  29.4727667 105.0737745  71.1728796  28.6318576 105.1302935
  70.9960435  30.1089065 105.4112525  70.5699388  20.4019653 106.3038412
  69.8322145  19.8897039 106.6348655  70.8226162  19.9620034 105.4921689
  70.0699408  31.3104163 106.0087563  70.3622382  31.8709220 105.2899928
  70.5798028  31.6032724 106.7640722  66.0923289  27.4029821  98.6434656
  65.6542719  26.6865680  98.1840293  66.8333730  27.6305936  98.0819747
  62.8824455  22.0926757 105.1646751  62.0692321  22.3920928 105.5711943
  63.3783449  21.6982446 105.8821234  65.0333033  32.0884514 107.0981016
  64.9909212  32.3145361 106.1689548  65.9495732  31.8547889 107.2466817
  74.2096404  25.6787018 104.7010974  74.0714302  25.8688614 103.7732163
  73.8532622  26.4406401 105.1579025  74.2365783  27.7463545 109.7122246
  74.6702290  27.6538834 110.5605300  74.9497364  27.7221045 109.0742262
  63.1498834  28.9647543 106.8942979  63.9439432  28.4697864 106.6925554
  62.4390526  28.4365407 106.5310684  67.9693678  31.3465639 111.2455346
  68.0230700  31.9156575 112.0133062  67.1008459  31.5167524 110.8809383
  59.4581597  23.1090625 102.9702731  58.5279185  23.0475081 103.1872694
  59.5539069  22.5866578 102.1739373  65.7270110  29.5376565 110.5740816
  65.5881195  29.1695350 111.4466754  64.9384706  30.0524205 110.4024774
  66.3218262  34.6385662 101.9166352  66.4970017  34.1673705 102.7311975
  65.6351050  35.2651428 102.1447613  67.2775325  28.9158168 107.9629654
  66.9425157  28.8758938 108.8587303  66.7779270  28.2502884 107.4900064
  70.2134516  26.2614202  98.2366713  69.5963687  25.5361031  98.1399766
  69.7451005  27.0223563  97.8933788  60.8879347  37.7875025 108.6906213
  61.1275945  38.4193549 109.3685231  60.0448543  37.4363065 108.9771572
  62.0033062  20.4799627  97.3588018  61.1262529  20.3588428  96.9950264
  62.4790815  19.6885705  97.1066906  65.4007209  33.5954147 111.0947717
  65.3277380  34.4009119 111.6067021  64.9584602  33.7946113 110.2695738
  65.1896988  32.8325917 104.6050538  64.4064510  33.3747597 104.6988763
  65.8889734  33.3499897 105.0044779  76.3523396  24.3460912 108.8903035
  76.3413272  25.2285628 108.5196968  75.4840775  23.9932463 108.6957572
  67.8605892  33.4940981 113.2505875  68.5733864  34.1288446 113.1781777
  67.3695921  33.5904847 112.4345877  69.5823419  27.3992234 104.8223167
  68.6479698  27.5193696 104.6527871  69.7600088  26.4964701 104.5583177
  72.9695971  23.2409553 105.3573201  73.4356423  24.0737545 105.2833504
  73.4203471  22.7754535 106.0618459  71.0372202  29.5853374 102.3559353
  71.3132046  29.4709969 103.2653227  70.1676700  29.1870859 102.3171526
  67.6726266  33.8339725 105.9992167  67.8548660  33.0161381 106.4619919
  68.4959252  34.0507417 105.5617057  68.0068431  32.7607910 103.2607215
  68.5356198  32.2500365 102.6477377  68.2696651  32.4450441 104.1252748
  61.3624179  33.8123027 106.0204991  60.6934554  34.2969155 105.5369031
  61.2237049  34.0592247 106.9348370  65.5029448  35.8466771 112.6187649
  66.0547756  36.0098392 113.3836735  65.8435641  36.4371208 111.9467674
  56.7311756  22.0741482 102.8000923  57.0265197  21.1652160 102.7467977
  55.8299792  22.0529221 102.4781926  68.6397835  33.7948746 109.6051332
  68.5148974  32.9938486 109.0962277  69.2976926  34.2894939 109.1165302
  70.7032743  31.5957766 111.2330882  69.7563079  31.4763117 111.1609208
  71.0515516  30.7080264 111.3157143  67.7079177  31.3910482 107.4335234
  67.5604139  30.4627190 107.6142804  68.5332670  31.4130573 106.9492309
  61.5741421  20.0428549 103.2915726  61.9137493  20.5714471 102.5694334
  62.0213541  20.3808956 104.0674293  71.3113298  32.2139041 108.5200107
  72.2359846  32.0081902 108.3824558  71.1428602  31.9655442 109.4289448
  63.5609568  18.5403171 101.4909019  64.2817931  18.9184424 100.9872736
  62.9374872  19.2592048 101.5943997  67.7040691  19.2448320 102.4267351
  67.9204305  20.1272958 102.1256179  67.2234758  18.8534533 101.6972993
  71.1008615  32.7324709 103.8762198  71.2745492  32.1671131 103.1236051
  71.5937506  33.5325603 103.6941688  76.9548006  25.4961131 105.4952498
  77.3979152  24.7468457 105.0971621  76.0774516  25.4871268 105.1126230
  72.0883787  32.0491473 100.9759096  72.7834692  32.6698166 101.1946411
  72.4306937  31.1986824 101.2511474  73.9875210  29.4991178 102.5046427
  74.5126534  29.8378451 101.7795747  73.8997563  28.5638194 102.3209562
  65.6715871  35.5663162 106.8641680  65.2320861  35.0739540 107.5574537
  66.4223988  35.0236129 106.6233756  58.1508210  31.7574703 106.8666308
  58.9766230  31.4578474 106.4864952  57.8002262  30.9882325 107.3156097
  63.1189743  31.1101171 108.9363982  62.4969752  30.4471876 108.6366210
  63.7894610  31.1362303 108.2537630  62.6803250  29.6605094 102.4122443
  62.8291370  30.3440559 101.7589115  63.4869694  29.6410184 102.9271898
  76.4980871  26.9666370 107.8874945  77.3327762  27.4056174 108.0512506
  76.6339999  26.4905023 107.0683191  60.4355883  25.6870272 103.4183511
  60.1901925  24.7832602 103.6163722  60.6051798  25.6887422 102.4762989
  59.7051531  21.4198629 100.9169673  59.0120776  21.4942984 100.2609709
  59.4603283  20.6558973 101.4391190  66.1798656  32.1553225  99.8834190
  65.6072623  32.7743412  99.4304662  66.7531449  32.7052586 100.4174112
  69.3995915  32.4390375 101.0142772  70.3326589  32.3735936 101.2175648
  69.3119128  33.2746642 100.5557305  72.0283932  31.7556245  97.9746720
  71.9497564  31.4216109  98.8682478  72.8493599  32.2478013  97.9738192
  66.5645454  23.4914037  97.2250242  67.5104559  23.3620245  97.2938660
  66.1859699  22.7528699  97.7019671  64.7488371  21.4164014  97.1605128
  63.8419827  21.1197126  97.2367841  65.0264352  21.1193832  96.2939414
  66.3650437  15.9600903 103.3149369  65.5551165  15.6147988 103.6904615
  67.0534854  15.6508447 103.9036981  63.5187156  18.2750949  97.3017107
  64.3806320  18.6005847  97.5612924  63.7037500  17.4882445  96.7890173
  71.6719792  17.1479475 104.4452330  71.0918461  17.8064279 104.0630382
  71.4055725  16.3256820 104.0339747  70.4544670  19.3079566 103.5008678
  69.5670525  19.5929216 103.2828873  70.8698659  19.1473329 102.6535955
  73.8059207  19.3326087 107.2163017  74.5819597  19.8222539 107.4887634
  73.0807341  19.7584141 107.6734887  58.4628921  33.8887317 108.5880123
  58.3283389  33.1287718 108.0218121  58.0460983  34.6128217 108.1208912
  69.5987884  29.0724240  97.5956698  70.3023734  29.2774243  98.2114354
  68.8750533  29.6401002  97.8605782  70.4285694  24.8234102 103.7158968
  70.3720896  25.2802653 102.8766601  70.9814037  24.0624786 103.5381811
  74.2390500  20.6123834 104.5409088  73.9827434  20.2120469 105.3717295
  73.6143368  21.3267628 104.4159227  78.5502838  23.3519907 107.0480379
  77.9902396  23.4213096 107.8211941  77.9446341  23.1760891 106.3279875
  61.6198047  34.7856634 108.7998565  61.5030431  35.7302066 108.6977256
  60.7990493  34.4830196 109.1884365  71.5074581  29.5106770  99.6455158
  72.3420185  29.0787968  99.4632633  71.3458924  29.3388783 100.5732053
  71.1620473  26.0138883 101.0111497  71.1069277  25.8483154 100.0699942
  70.5366529  26.7214916 101.1673687  64.4716599  15.5146992 100.5896816
  64.4595269  16.4588832 100.7465087  65.3640021  15.3317137 100.2956277
  62.6452561  35.4384896 112.0154494  63.5479808  35.4708506 112.3320989
  62.4189931  34.5085347 112.0300830  64.4006163  34.1915882 108.6764573
  63.4501794  34.1917744 108.5628945  64.7038649  33.4448617 108.1600607
  80.1358856  40.0276421 109.7410335  80.7737266  39.9083168 109.0373675
  80.0179699  40.9757265 109.7998287  76.9448563  39.9803849 109.6771860
  76.6067074  39.8644914 108.7892394  77.8138331  39.5795014 109.6572866
  72.8035378  41.8339325 105.6668751  72.2400243  41.7429262 104.8985038
  72.6887773  41.0139230 106.1471243  77.4268346  41.1338701 115.6358065
  77.4156986  40.7391499 114.7638569  77.5888985  40.4004773 116.2291837
  70.3499810  43.3290517 108.5052971  71.1421102  42.9881342 108.0899270
  70.5896460  43.4385492 109.4255124  78.3834937  45.5010293 100.9783215
  77.7322917  46.0864373 100.5917229  79.1779300  46.0316488 101.0378253
  72.3090564  42.5899430 101.3770350  73.0821440  42.0428417 101.2383226
  72.6615963  43.4543679 101.5884811  74.1475607  43.9175812 114.5837249
  73.8565473  44.8221443 114.4683915  74.7832591  43.9592340 115.2981319
  75.0731814  41.2952661 111.1738609  75.6695386  41.0708683 110.4595572
  75.1306785  40.5537406 111.7764057  74.6456842  38.7492096  99.0088800
  74.8982363  38.2273618  98.2472263  73.7081401  38.5858242  99.1115483
  79.6900125  37.7527875 106.8163543  80.4763214  37.3347298 106.4653960
  79.9538829  38.6573967 106.9845191  79.8610202  43.1900725 101.5152200
  79.2256035  43.2635351 102.2273104  79.5307609  43.7794324 100.8371279
  85.0908552  37.6903108 107.7196521  85.8233724  37.1202325 107.9534351
  84.3347908  37.3024708 108.1603027  74.3653131  40.6520202 101.2113175
  74.2489389  39.9765106 101.8794259  74.4755391  40.1652576 100.3945328
  76.7084672  40.1130349 104.9159864  76.3442879  39.5860970 105.6272785
  77.5651788  39.7228818 104.7426349  76.3490159  35.1420249  99.9121212
  76.5164561  36.0100485 100.2791684  76.1587328  35.3047531  98.9882502
  79.1065492  43.6037228 111.5787043  78.8066215  44.5062267 111.4702850
  78.7616551  43.3369411 112.4308196  72.5577973  40.0551025 107.6123747
  71.6328470  39.9227239 107.8201439  72.8062387  40.8345244 108.1093690
  82.5062636  36.1219768 109.2584480  81.5979513  36.0535177 108.9643241
  82.4550231  36.5991713 110.0866306  76.3279380  37.5977907 100.8967879
  76.2079005  38.0434957 101.7353360  75.6331968  37.9463224 100.3381417
  69.9186784  39.6984298 108.4467536  70.0479166  39.9518777 109.3606948
  69.2384236  40.2912006 108.1272191  74.0886272  50.3681548 104.5458011
  74.0110301  51.3189373 104.6246491  73.4847915  50.0227421 105.2032937
  82.0264446  38.0699380 101.7248213  82.9382302  38.3026766 101.5495911
  81.5174093  38.6536424 101.1623292  74.8349874  40.3494867 116.7637344
  75.5764558  40.8879911 116.4872168  74.1286859  40.9761156 116.9208896
  80.3105213  42.4924008 115.3609506  80.7188569  42.0506418 114.6164138
  79.5882475  41.9176635 115.6143699  76.6636283  37.4296614 112.7343063
  77.5097479  37.8536028 112.8777712  76.6034921  36.7730239 113.4281626
  80.6334028  43.0525198 109.1161795  80.0042890  43.2170912 108.4137863
  80.2459690  43.4666808 109.8872759  84.5123260  43.9879636 106.4706159
  83.8274298  44.3678537 105.9203192  84.5967109  44.5974963 107.2038106
  81.7674192  41.6339595 113.0701502  81.9791087  42.2771355 112.3935883
  81.7203940  40.8001912 112.6023432  79.3700420  34.2457416 109.9738074
  78.5084900  34.5438669 110.2654812  79.3962855  34.4627815 109.0419107
  76.1861990  42.7899606 106.3811880  76.6500335  43.0687309 105.5916502
  75.9218788  41.8883051 106.1984971  73.0786071  42.3371088 109.3191643
  73.6487428  42.7658356 108.6809128  73.6694183  42.0553672 110.0175829
  75.1230876  38.9122759 103.1901445  75.8254919  39.3643802 103.6575371
  74.7911504  38.2706577 103.8181338  73.5711237  37.5034515 117.5652654
  72.9409898  38.1850796 117.7988051  73.4647325  37.3917597 116.6205793
  68.8656210  37.1706311 108.4918579  68.0755264  37.4263840 108.0158689
  69.3567457  37.9854649 108.5970619  82.8820019  44.5111550 111.2423859
  83.7037463  44.1091738 110.9606541  82.8782422  44.4079785 112.1939975
  70.8170955  37.5350891 105.4502055  70.0202119  37.6469585 105.9685551
  70.5896548  37.8737543 104.5842946  76.6476623  44.0595594 113.3984570
  76.7121055  44.5216001 114.2342742  75.9387547  43.4292959 113.5266880
  67.1493913  37.4236802 110.9233569  67.4001951  38.3083812 111.1891145
  67.6853461  37.2441403 110.1508661  76.3624641  45.7263701 103.2663550
  76.2270315  46.5715237 103.6948398  76.9034453  45.9282979 102.5029484
  69.8154038  43.2439139 103.8391475  70.3278559  44.0382390 103.9897040
  70.4676751  42.5465430 103.7725077  71.6248923  46.3604896 105.9214229
  71.8015551  47.2822860 105.7335212  72.4205756  46.0463315 106.3508608
  70.9101279  38.4069527 115.7976392  70.7954794  37.5054785 116.0983491
  70.0545797  38.6533224 115.4461208  77.9893117  46.3487268 117.3963892
  77.5456971  45.5623646 117.0784797  78.6510331  46.5366418 116.7307783
  72.7480238  47.8783069 111.9224571  73.2987663  47.7500133 111.1501565
  71.9091714  48.1777958 111.5719464  80.0874355  46.6290068 115.4245294
  80.0692830  47.4498949 114.9325563  81.0094275  46.5044143 115.6495435
  76.5447409  44.1434197 116.2668802  77.0775746  43.3822485 116.0368110
  76.0161490  43.8507849 117.0092956  67.7802955  41.5727794 104.6151046
  68.6178177  41.9824802 104.3984754  67.9581222  40.6327236 104.5851240
  79.6767387  39.2402874 100.3034879  79.1614010  40.0107479 100.5423266
  79.4044695  38.5668010 100.9267940  77.2614498  34.0852575 105.3620117
  76.4056094  33.6959425 105.1825756  77.6741450  34.1644536 104.5019903
  78.7913645  31.6198918 109.7611677  78.2878440  31.5829053 108.9479482
  79.0844251  32.5291661 109.8208334  75.0356530  31.7037648 108.7677859
  75.9009527  31.5080457 108.4083748  75.1034039  31.4748000 109.6947215
  84.6501661  41.9935229 102.2388052  83.8731104  41.6546388 101.7943214
  85.3293142  41.9987852 101.5643017  79.4653690  37.1129966 102.1294660
  79.1603826  37.4276116 102.9804803  80.4184132  37.1911386 102.1721993
  77.9100122  43.2720190 103.7787614  77.3821483  42.5372949 103.4660851
  77.4087625  44.0494866 103.5327582  82.8892968  41.4669210 108.8954660
  82.2316642  42.1568472 108.9834789  83.6933367  41.8565642 109.2388647
  72.6418850  33.9339856 106.1394225  73.2162601  33.7115037 105.4067418
  73.2289832  34.0028550 106.8922827  81.6998427  39.8213583 106.9458602
  82.2130308  40.4543575 107.4480312  82.3499651  39.2214778 106.5801962
  72.9688437  35.9644317 100.1590111  72.1325749  36.3019004 100.4799385
  72.8293206  35.8293297  99.2217248  74.9441517  30.8081105 104.8669295
  74.2905930  30.4930122 104.2425910  74.9021991  30.1856845 105.5929118
  76.0552722  41.0900400  96.7822587  75.1479784  40.8589653  96.9813736
  76.5523754  40.2938019  96.9696569  78.9620801  49.7997907  99.7019273
  78.2882500  50.1029604 100.3104231  79.3486623  50.6026987  99.3524730
  78.1779258  37.2963038 109.1916943  77.2601819  37.5177985 109.0338631
  78.5939401  37.3709349 108.3328650  78.9614305  38.6954454 104.3219623
  79.7086124  39.2075851 104.0126745  79.2305895  38.3738507 105.1824016
  77.2340956  41.1912995 101.3046577  76.3252175  40.9072028 101.4019047
  77.2636039  41.6112073 100.4449884  82.4660223  44.8019584 105.0737745
  82.0122550  43.9610494 105.1302935  81.8354190  45.4380983 105.4112525
  81.4093142  35.7311570 106.3038412  80.6715899  35.2188957 106.6348655
  81.6619916  35.2911952 105.4921689  80.9093162  46.6396081 106.0087563
  81.2016137  47.2001138 105.2899928  81.4191783  46.9324642 106.7640722
  81.5104770  28.5087822 106.8980181  81.8163647  27.6485186 106.6106096
  82.2357375  29.1005443 106.6979175  67.8029126  38.9118509 105.2861779
  67.6053526  38.3187870 104.5612846  67.2475790  38.6070719 106.0037718
  75.7825850  38.8041615 107.4056372  75.8374459  37.8515452 107.3298849
  74.9717052  38.9601054 107.8897671  76.9317043  42.7321738  98.6434656
  76.4936473  42.0157597  98.1840293  77.6727484  42.9597853  98.0819747
  73.7218209  37.4218675 105.1646751  72.9086075  37.7212846 105.5711943
  74.2177204  37.0274364 105.8821234  75.8726787  47.4176432 107.0981016
  75.8302966  47.6437278 106.1689548  76.7889486  47.1839807 107.2466817
  79.3192421  37.8860500 113.9961645  79.6741809  38.1131973 114.8556111
  79.9664552  38.2178876 113.3738901  85.0490158  41.0078935 104.7010974
  84.9108057  41.1980531 103.7732163  84.6926377  41.7698318 105.1579025
  73.2132284  34.9937031 110.7807986  73.8531664  34.8525790 110.0830950
  72.3809815  34.7071544 110.4046588  85.0759538  43.0755462 109.7122246
  85.5096044  42.9830752 110.5605300  85.7891118  43.0512963 109.0742262
  73.9892588  44.2939461 106.8942979  74.7833187  43.7989781 106.6925554
  73.2784281  43.7657324 106.5310684  78.8087433  46.6757557 111.2455346
  78.8624455  47.2448493 112.0133062  77.9402214  46.8459442 110.8809383
  70.2975352  38.4382543 102.9702731  69.3672940  38.3766998 103.1872694
  70.3932824  37.9158496 102.1739373  70.2160901  34.9637356 105.5580973
  70.4767718  35.8782689 105.4490134  71.0378073  34.4961798 105.7077586
  71.6885826  36.3775113 112.7279798  72.3608879  36.1692475 112.0792447
  70.8615613  36.1797199 112.2885030  77.7675532  40.8417819 112.8042278
  78.6967592  40.9928978 112.6311246  77.3466562  40.9301839 111.9490925
  76.5663864  44.8668483 110.5740816  76.4274950  44.4987267 111.4466754
  75.7778460  45.3816122 110.4024774  77.1612016  49.9677580 101.9166352
  77.3363772  49.4965623 102.7311975  76.4744804  50.5943346 102.1447613
  78.1169079  44.2450086 107.9629654  77.7818912  44.2050856 108.8587303
  77.6173025  43.5794802 107.4900064  72.0913323  39.6517716 113.4882235
  71.9533121  38.9197955 114.0893774  73.0018247  39.5626616 113.2066423
  81.0528271  41.5906120  98.2366713  80.4357442  40.8652948  98.1399766
  80.5844759  42.3515480  97.8933788  74.7195624  39.3637675 112.9765914
  75.4295242  38.7230867 112.9352533  74.6764932  39.6150570 113.8992095
  82.7082403  46.3005028 115.8972494  82.6494949  45.6164249 115.2303077
  83.1101921  47.0424018 115.4453120  73.4324558  36.3502893 114.7961554
  72.8961915  35.8993631 115.4483150  72.8441266  36.4848802 114.0532018
  71.7273101  53.1166942 108.6906213  71.9669700  53.7485466 109.3685231
  70.8842298  52.7654982 108.9771572  72.8426817  35.8091544  97.3588018
  71.9656283  35.6880345  96.9950264  73.3184570  35.0177623  97.1066906
  82.7099810  44.2644612 114.1286473  81.8226589  43.9270534 114.2512872
  83.2798361  43.5327644 114.3655239  64.3628957  40.5968704 107.4529525
  65.0499997  40.2830434 106.8650540  64.2077086  41.5010069 107.1796776
  69.1663679  35.4858901 111.8814548  69.0821868  34.8784570 111.1464958
  68.3446386  35.9767919 111.8824045  76.2400963  48.9246065 111.0947717
  76.1671135  49.7301036 111.6067021  75.7978356  49.1238031 110.2695738
  76.0290743  48.1617835 104.6050538  75.2458265  48.7039515 104.6988763
  76.7283488  48.6791814 105.0044779  79.3387393  33.9712464 107.2484743
  79.8356093  33.2182427 106.9285814  78.5674374  34.0076781 106.6827953
  87.1917150  39.6752830 108.8903035  87.1807027  40.5577545 108.5196968
  86.3234530  39.3224381 108.6957572  78.6999647  48.8232899 113.2505875
  79.4127619  49.4580364 113.1781777  78.2089675  48.9196765 112.4345877
  80.4217174  42.7284151 104.8223167  79.4873452  42.8485614 104.6527871
  80.5993842  41.8256618 104.5583177  75.9222362  36.1129847 106.9756428
  75.5520149  35.5600888 107.6637334  76.4181454  35.5087981 106.4231428
  83.8089725  38.5701471 105.3573201  84.2750177  39.4029462 105.2833504
  84.2597226  38.1046452 106.0618459  73.7511560  46.5727342 114.0711446
  74.4521020  47.2063825 114.2240840  73.2806675  46.9142074 113.3107085
  81.8765956  44.9145292 102.3559353  82.1525800  44.8001887 103.2653227
  81.0070455  44.5162777 102.3171526  81.5512846  39.1271950 111.8963996
  80.8984297  39.3747857 111.2416449  81.9293226  38.3136088 111.5626474
  78.5120020  49.1631643 105.9992167  78.6942415  48.3453299 106.4619919
  79.3353006  49.3799335 105.5617057  78.8462186  48.0899828 103.2607215
  79.3749952  47.5792283 102.6477377  79.1090405  47.7742358 104.1252748
  69.3479278  46.1063697 111.0042549  69.9332715  45.3607385 111.1370453
  69.1504117  46.4167654 111.8879213  72.2017934  49.1414945 106.0204991
  71.5328309  49.6261072 105.5369031  72.0630803  49.3884165 106.9348370
  63.9396933  38.6769297 109.7246992  63.9781033  38.1432888 110.5184110
  63.4337226  38.1504503 109.1057969  76.3423202  51.1758688 112.6187649
  76.8941510  51.3390310 113.3836735  76.6829396  51.7663126 111.9467674
  71.3187695  33.5233838 113.2209534  71.3829022  34.3848669 112.8086932
  71.2554816  32.9107840 112.4881893  67.5705511  37.4033400 102.8000923
  67.8658952  36.4944078 102.7467977  66.6693546  37.3821139 102.4781926
  79.4791589  49.1240664 109.6051332  79.3542729  48.3230404 109.0962277
  80.1370681  49.6186857 109.1165302  71.0999758  35.4789396 108.7828472
  70.3786343  36.0925364 108.6435945  71.8893013  36.0147161 108.7045118
  81.5426498  46.9249684 111.2330882  80.5956833  46.8055035 111.1609208
  81.8909271  46.0372182 111.3157143  73.9026071  32.8143823 115.0569124
  74.4260473  33.0606119 115.8195433  73.6838404  33.6463858 114.6372261
  69.2993352  35.0847497 102.9240248  68.9706058  34.2044876 102.7415354
  69.6532723  35.0295166 103.8116638  78.5472931  46.7202400 107.4335234
  78.3997894  45.7919107 107.6142804  79.3726425  46.7422491 106.9492309
  72.4135175  35.3720467 103.2915726  72.7531248  35.9006388 102.5694334
  72.8607296  35.7100873 104.0674293  82.1507053  47.5430959 108.5200107
  83.0753600  47.3373820 108.3824558  81.9822356  47.2947360 109.4289448
  75.1078616  33.7557518 112.7418794  74.7675437  32.9565331 113.1439474
  74.4017623  34.0559229 112.1695627  75.7595088  30.8406830 111.1946117
  76.5821157  30.3667308 111.0725007  76.0033152  31.6197314 111.6944803
  74.4003323  33.8695089 101.4909019  75.1211685  34.2476341 100.9872736
  73.7768627  34.5883966 101.5943997  78.5434445  34.5740238 102.4267351
  78.7598060  35.4564876 102.1256179  78.0628513  34.1826451 101.6972993
  73.2833667  37.5325951 109.0038096  73.1378248  37.8466254 109.8962377
  72.8058870  38.1510851 108.4508994  75.1430050  34.5228499 109.0518985
  75.1291618  33.6269592 108.7151283  75.8602478  34.5299163 109.6857271
  76.9956180  34.9565839 111.0972113  76.7373958  35.8782910 111.0956443
  76.4641221  34.5596274 111.7872577  81.9402369  48.0616626 103.8762198
  82.1139247  47.4963049 103.1236051  82.4331260  48.8617521 103.6941688
  67.7579329  40.0731295 111.9425757  67.2132797  40.8491103 112.0746031
  68.6358679  40.4202100 111.7844878  74.5466946  33.4042879 104.3206555
  74.6682857  32.4759525 104.5197443  74.2568988  33.4181565 103.4084871
  77.4158136  31.0897790 107.4573275  77.4379833  31.1537123 106.5025255
  77.8326195  30.2502298 107.6513781  87.7941760  40.8253049 105.4952498
  88.2372906  40.0760374 105.0971621  86.9168271  40.8163186 105.1126230
  82.9277542  47.3783391 100.9759096  83.6228446  47.9990083 101.1946411
  83.2700692  46.5278742 101.2511474  68.5445351  39.2001192 114.8355914
  67.8027087  39.3483827 115.4220544  68.2238095  39.4609457 113.9722663
  84.8268965  44.8283096 102.5046427  85.3520289  45.1670369 101.7795747
  84.7391317  43.8930111 102.3209562  76.4889013  48.7417170 114.6336304
  76.7976140  48.4966317 115.5059003  77.2864496  48.9463808 114.1455174
  76.5109626  50.8955079 106.8641680  76.0714616  50.4031458 107.5574537
  77.2617742  50.3528047 106.6233756  68.9901965  47.0866620 106.8666308
  69.8159984  46.7870392 106.4864952  68.6396017  46.3174243 107.3156097
  73.9583498  46.4393088 108.9363982  73.3363507  45.7763794 108.6366210
  74.6288365  46.4654220 108.2537630  67.1910570  45.0052947 107.8255242
  66.3542478  44.5775121 107.6439243  67.1634215  45.1985390 108.7626033
  73.5197005  44.9897012 102.4122443  73.6685125  45.6732476 101.7589115
  74.3263448  44.9702102 102.9271898  76.2607314  35.6706249 115.2842847
  75.3910623  35.9639815 115.0125435  76.4966794  36.2546694 116.0050110
  87.3374625  42.2958287 107.8874945  88.1721516  42.7348092 108.0512506
  87.4733754  41.8196941 107.0683191  71.2749638  41.0162189 103.4183511
  71.0295680  40.1124519 103.6163722  71.4445552  41.0179340 102.4762989
  70.5445285  36.7490547 100.9169673  69.8514530  36.8234902 100.2609709
  70.2997037  35.9850891 101.4391190  79.2158942  28.3086148 108.3209164
  79.4960695  27.6409337 108.9469590  80.0009549  28.5015244 107.8083827
  77.0192410  47.4845142  99.8834190  76.4466377  48.1035329  99.4304662
  77.5925204  48.0344504 100.4174112  80.2389670  47.7682292 101.0142772
  81.1720343  47.7027854 101.2175648  80.1512883  48.6038559 100.5557305
  82.8677687  47.0848163  97.9746720  82.7891318  46.7508026  98.8682478
  83.6887353  47.5769931  97.9738192  77.4039209  38.8205955  97.2250242
  78.3498313  38.6912163  97.2938660  77.0253454  38.0820617  97.7019671
  77.2877901  42.8723701 118.6850899  78.2080911  43.0502300 118.8790946
  77.2527484  41.9279747 118.5330599  75.5882126  36.7455931  97.1605128
  74.6813581  36.4489044  97.2367841  75.8658107  36.4485750  96.2939414
  66.5060066  38.0662295 107.6104174  66.1862851  37.2127603 107.3178548
  65.9593494  38.2810873 108.3662141  70.2839974  40.7824736 111.3273681
  70.5025983  41.7141844 111.3461714  70.6965748  40.4232710 112.1128484
  77.2044192  31.2892821 103.3149369  76.3944920  30.9439906 103.6904615
  77.8928608  30.9800365 103.9036981  79.1334740  30.3670868 104.9373666
  79.6865778  30.7866321 105.5963689  79.3704826  29.4406616 104.9796622
  74.3580910  33.6042867  97.3017107  75.2200074  33.9297765  97.5612924
  74.5431255  32.8174363  96.7890173  66.3748326  41.6865206 109.5797296
  65.6811798  41.2719159 109.0667250  67.1221317  41.7285743 108.9830715
  82.5113547  32.4771393 104.4452330  81.9312216  33.1356197 104.0630382
  82.2449480  31.6548738 104.0339747  80.9617113  31.8776451 106.6473650
  81.4616892  31.9892985 105.8387969  81.6052721  31.5737504 107.2874459
  75.0199109  39.7855080 119.5341491  74.5366191  40.5855441 119.7405380
  75.1060048  39.7963025 118.5808935  68.2885069  41.6183460 107.4563311
  68.2655757  41.7171147 106.5045194  68.5985705  42.4648611 107.7780477
  70.9472447  43.6759615 111.5709925  71.9015700  43.6443557 111.5039857
  70.7484970  43.2150239 112.3860151  71.5371829  42.2460731 114.1380723
  72.3564718  42.7404810 114.1615560  71.8108636  41.3292699 114.1098290
  81.2938425  34.6371483 103.5008678  80.4064280  34.9221134 103.2828873
  81.7092414  34.4765247 102.6535955  84.6452961  34.6618004 107.2163017
  85.4213351  35.1514457 107.4887634  83.9201095  35.0876059 107.6734887
  69.3022675  49.2179235 108.5880123  69.1677143  48.4579636 108.0218121
  68.8854738  49.9420134 108.1208912  80.4381638  44.4016158  97.5956698
  81.1417488  44.6066161  98.2114354  79.7144287  44.9692920  97.8605782
  81.2679449  40.1526019 103.7158968  81.2114650  40.6094571 102.8766601
  81.8207791  39.3916704 103.5381811  85.0784255  35.9415751 104.5409088
  84.8221189  35.5412387 105.3717295  84.4537123  36.6559545 104.4159227
  89.3896592  38.6811825 107.0480379  88.8296150  38.7505014 107.8211941
  88.7840096  38.5052809 106.3279875  72.4591801  50.1148552 108.7998565
  72.3424185  51.0593984 108.6977256  71.6384248  49.8122113 109.1884365
  82.3468336  44.8398687  99.6455158  83.1813940  44.4079886  99.4632633
  82.1852679  44.6680701 100.5732053  82.0014228  41.3430801 101.0111497
  81.9463032  41.1775072 100.0699942  81.3760283  42.0506834 101.1673687
  66.7906743  36.5798865 114.8372920  67.4365607  36.0697819 115.3260145
  66.5823894  37.3167547 115.4116345  75.3110353  30.8438910 100.5896816
  75.2989023  31.7880750 100.7465087  76.2033775  30.6609055 100.2956277
  73.4846315  50.7676814 112.0154494  74.3873562  50.8000424 112.3320989
  73.2583685  49.8377264 112.0300830  75.2399917  49.5207800 108.6764573
  74.2895548  49.5209662 108.5628945  75.5432404  48.7740535 108.1600607
  79.1262473  27.4381686 104.8442753  78.3594869  26.8840173 104.9899435
  79.5373178  27.5103555 105.7056904  83.6429133  57.1631243 105.6668751
  83.0793998  57.0721180 104.8985038  83.5281528  56.3431147 106.1471243
  81.1893565  58.6582435 108.5052971  81.9814857  58.3173259 108.0899270
  81.4290215  58.7677410 109.4255124  89.2228692  60.8302211 100.9783215
  88.5716671  61.4156291 100.5917229  90.0173054  61.3608406 101.0378253
  83.1484319  57.9191348 101.3770350  83.9215195  57.3720335 101.2383226
  83.5009718  58.7835597 101.5884811  85.4850597  54.0784014  99.0088800
  85.7376117  53.5565535  98.2472263  84.5475156  53.9150159  99.1115483
  90.5293879  53.0819792 106.8163543  91.3156969  52.6639215 106.4653960
  90.7932584  53.9865885 106.9845191  90.7003957  58.5192643 101.5152200
  90.0649790  58.5927269 102.2273104  90.3701363  59.1086241 100.8371279
  85.2046885  55.9812120 101.2113175  85.0883143  55.3057023 101.8794259
  85.3149145  55.4944494 100.3945328  87.5478426  55.4422267 104.9159864
  87.1836633  54.9152888 105.6272785  88.4045542  55.0520736 104.7426349
  87.1883913  50.4712167  99.9121212  87.3558316  51.3392403 100.2791684
  86.9981082  50.6339448  98.9882502  83.3971728  55.3842942 107.6123747
  82.4722224  55.2519157 107.8201439  83.6456141  56.1637162 108.1093690
  87.1673134  52.9269824 100.8967879  87.0472759  53.3726875 101.7353360
  86.4725722  53.2755142 100.3381417  80.7580539  55.0276216 108.4467536
  80.8872920  55.2810695 109.3606948  80.0777990  55.6203924 108.1272191
  92.8658200  53.3991297 101.7248213  93.7776056  53.6318684 101.5495911
  92.3567847  53.9828342 101.1623292  90.2094175  49.5749333 109.9738074
  89.3478654  49.8730587 110.2654812  90.2356610  49.7919732 109.0419107
  87.0255744  58.1191524 106.3811880  87.4894090  58.3979227 105.5916502
  86.7612543  57.2174969 106.1984971  85.9624630  54.2414676 103.1901445
  86.6648674  54.6935720 103.6575371  85.6305259  53.5998495 103.8181338
  79.7049964  52.4998229 108.4918579  78.9149018  52.7555758 108.0158689
  80.1961212  53.3146567 108.5970619  81.6564710  52.8642808 105.4502055
  80.8595873  52.9761502 105.9685551  81.4290302  53.2029460 104.5842946
  77.9887667  52.7528719 110.9233569  78.2395706  53.6375729 111.1891145
  78.5247216  52.5733321 110.1508661  87.2018395  61.0555619 103.2663550
  87.0664070  61.9007155 103.6948398  87.7428208  61.2574897 102.5029484
  80.6547792  58.5731057 103.8391475  81.1672313  59.3674307 103.9897040
  81.3070505  57.8757347 103.7725077  82.4642677  61.6896813 105.9214229
  82.6409306  62.6114778 105.7335212  83.2599511  61.3755232 106.3508608
  78.6196709  56.9019711 104.6151046  79.4571931  57.3116720 104.3984754
  78.7974977  55.9619153 104.5851240  90.5161141  54.5694792 100.3034879
  90.0007765  55.3399397 100.5423266  90.2438450  53.8959928 100.9267940
  88.1008252  49.4144493 105.3620117  87.2449849  49.0251343 105.1825756
  88.5135204  49.4936453 104.5019903  89.6307399  46.9490836 109.7611677
  89.1272195  46.9120971 108.9479482  89.9238006  47.8583579 109.8208334
  85.8750285  47.0329566 108.7677859  86.7403282  46.8372374 108.4083748
  85.9427794  46.8039917 109.6947215  95.4895415  57.3227147 102.2388052
  94.7124858  56.9838306 101.7943214  96.1686896  57.3279770 101.5643017
  90.3047445  52.4421884 102.1294660  89.9997580  52.7568033 102.9804803
  91.2577887  52.5203304 102.1721993  88.7493876  58.6012107 103.7787614
  88.2215238  57.8664867 103.4660851  88.2481379  59.3786784 103.5327582
  83.4812604  49.2631774 106.1394225  84.0556356  49.0406955 105.4067418
  84.0683586  49.3320468 106.8922827  83.8082191  51.2936235 100.1590111
  82.9719503  51.6310921 100.4799385  83.6686961  51.1585214  99.2217248
  85.7835272  46.1373023 104.8669295  85.1299684  45.8222040 104.2425910
  85.7415746  45.5148763 105.5929118  86.8946477  56.4192318  96.7822587
  85.9873538  56.1881571  96.9813736  87.3917509  55.6229937  96.9696569
  89.8014555  65.1289825  99.7019273  89.1276254  65.4321522 100.3104231
  90.1880377  65.9318905  99.3524730  89.0173012  52.6254956 109.1916943
  88.0995573  52.8469903 109.0338631  89.4333156  52.7001267 108.3328650
  89.8008060  54.0246372 104.3219623  90.5479879  54.5367769 104.0126745
  90.0699649  53.7030424 105.1824016  88.0734710  56.5204912 101.3046577
  87.1645929  56.2363945 101.4019047  88.1029794  56.9403991 100.4449884
  92.2486897  51.0603488 106.3038412  91.5109654  50.5480874 106.6348655
  92.5013671  50.6203870 105.4921689  92.3498524  43.8379740 106.8980181
  92.6557401  42.9777103 106.6106096  93.0751129  44.4297360 106.6979175
  78.6422880  54.2410427 105.2861779  78.4447280  53.6479787 104.5612846
  78.0869544  53.9362637 106.0037718  86.6219604  54.1333533 107.4056372
  86.6768214  53.1807369 107.3298849  85.8110806  54.2892972 107.8897671
  87.7710798  58.0613656  98.6434656  87.3330228  57.3449515  98.1840293
  88.5121239  58.2889771  98.0819747  84.5611964  52.7510593 105.1646751
  83.7479830  53.0504763 105.5711943  85.0570958  52.3566282 105.8821234
  95.8883913  56.3370853 104.7010974  95.7501811  56.5272449 103.7732163
  95.5320131  57.0990236 105.1579025  84.0526039  50.3228948 110.7807986
  84.6925418  50.1817707 110.0830950  83.2203569  50.0363462 110.4046588
  84.8286343  59.6231379 106.8942979  85.6226941  59.1281699 106.6925554
  84.1178035  59.0949242 106.5310684  81.1369106  53.7674460 102.9702731
  80.2066694  53.7058916 103.1872694  81.2326578  53.2450413 102.1739373
  81.0554655  50.2929273 105.5580973  81.3161472  51.2074607 105.4490134
  81.8771827  49.8253716 105.7077586  82.5279580  51.7067030 112.7279798
  83.2002634  51.4984393 112.0792447  81.7009367  51.5089116 112.2885030
  88.0005771  65.2969497 101.9166352  88.1757526  64.8257540 102.7311975
  87.3138559  65.9235263 102.1447613  91.8922025  56.9198038  98.2366713
  91.2751196  56.1944866  98.1399766  91.4238514  57.6807398  97.8933788
  83.6820571  51.1383462  97.3588018  82.8050038  51.0172263  96.9950264
  84.1578324  50.3469540  97.1066906  75.2022711  55.9260622 107.4529525
  75.8893751  55.6122352 106.8650540  75.0470840  56.8301986 107.1796776
  80.0057434  50.8150818 111.8814548  79.9215622  50.2076488 111.1464958
  79.1840140  51.3059837 111.8824045  90.1781147  49.3004382 107.2484743
  90.6749847  48.5474344 106.9285814  89.4068129  49.3368699 106.6827953
  91.2610928  58.0576069 104.8223167  90.3267207  58.1777532 104.6527871
  91.4387597  57.1548536 104.5583177  86.7616116  51.4421765 106.9756428
  86.3913904  50.8892805 107.6637334  87.2575209  50.8379898 106.4231428
  94.6483480  53.8993388 105.3573201  95.1143932  54.7321380 105.2833504
  95.0990980  53.4338370 106.0618459  92.7159711  60.2437210 102.3559353
  92.9919555  60.1293804 103.2653227  91.8464209  59.8454695 102.3171526
  89.6855940  63.4191746 103.2607215  90.2143707  62.9084200 102.6477377
  89.9484160  63.1034276 104.1252748  74.7790688  54.0061215 109.7246992
  74.8174787  53.4724806 110.5184110  74.2730980  53.4796421 109.1057969
  82.1581450  48.8525756 113.2209534  82.2222776  49.7140587 112.8086932
  82.0948570  48.2399757 112.4881893  78.4099265  52.7325317 102.8000923
  78.7052706  51.8235996 102.7467977  77.5087301  52.7113057 102.4781926
  81.9393512  50.8081314 108.7828472  81.2180098  51.4217282 108.6435945
  82.7286768  51.3439079 108.7045118  80.1387107  50.4139415 102.9240248
  79.8099813  49.5336794 102.7415354  80.4926477  50.3587084 103.8116638
  83.2528930  50.7012385 103.2915726  83.5925002  51.2298306 102.5694334
  83.7001050  51.0392791 104.0674293  85.9472371  49.0849436 112.7418794
  85.6069191  48.2857249 113.1439474  85.2411377  49.3851146 112.1695627
  86.5988843  46.1698748 111.1946117  87.4214912  45.6959226 111.0725007
  86.8426906  46.9489232 111.6944803  85.2397077  49.1987006 101.4909019
  85.9605440  49.5768259 100.9872736  84.6162381  49.9175883 101.5943997
  89.3828200  49.9032155 102.4267351  89.5991814  50.7856793 102.1256179
  88.9022267  49.5118369 101.6972993  84.1227421  52.8617869 109.0038096
  83.9772002  53.1758172 109.8962377  83.6452625  53.4802769 108.4508994
  85.9823804  49.8520417 109.0518985  85.9685373  48.9561510 108.7151283
  86.6996232  49.8591080 109.6857271  87.8349935  50.2857757 111.0972113
  87.5767713  51.2074827 111.0956443  87.3034975  49.8888191 111.7872577
  78.5973083  55.4023213 111.9425757  78.0526552  56.1783021 112.0746031
  79.4752433  55.7494017 111.7844878  85.3860700  48.7334797 104.3206555
  85.5076611  47.8051443 104.5197443  85.0962743  48.7473483 103.4084871
  88.2551891  46.4189707 107.4573275  88.2773587  46.4829040 106.5025255
  88.6719950  45.5794216 107.6513781  93.7671296  62.7075308 100.9759096
  94.4622201  63.3282001 101.1946411  94.1094446  61.8570660 101.2511474
  95.6662719  60.1575014 102.5046427  96.1914043  60.4962287 101.7795747
  95.5785072  59.2222029 102.3209562  79.8295719  62.4158538 106.8666308
  80.6553739  62.1162310 106.4864952  79.4789771  61.6466160 107.3156097
  78.0304324  60.3344864 107.8255242  77.1936232  59.9067039 107.6439243
  78.0027969  60.5277308 108.7626033  84.3590759  60.3188930 102.4122443
  84.5078879  61.0024394 101.7589115  85.1657203  60.2994020 102.9271898
  82.1143392  56.3454107 103.4183511  81.8689434  55.4416437 103.6163722
  82.2839307  56.3471258 102.4762989  81.3839040  52.0782465 100.9169673
  80.6908285  52.1526820 100.2609709  81.1390792  51.3142808 101.4391190
  90.0552696  43.6378066 108.3209164  90.3354450  42.9701255 108.9469590
  90.8403303  43.8307162 107.8083827  87.8586165  62.8137060  99.8834190
  87.2860132  63.4327247  99.4304662  88.4318958  63.3636422 100.4174112
  91.0783424  63.0974210 101.0142772  92.0114098  63.0319772 101.2175648
  90.9906637  63.9330477 100.5557305  93.7071441  62.4140080  97.9746720
  93.6285073  62.0799944  98.8682478  94.5281108  62.9061848  97.9738192
  88.2432963  54.1497873  97.2250242  89.1892068  54.0204081  97.2938660
  87.8647208  53.4112535  97.7019671  86.4275880  52.0747849  97.1605128
  85.5207336  51.7780962  97.2367841  86.7051861  51.7777667  96.2939414
  77.3453821  53.3954213 107.6104174  77.0256605  52.5419521 107.3178548
  76.7987249  53.6102791 108.3662141  88.0437946  46.6184739 103.3149369
  87.2338674  46.2731824 103.6904615  88.7322363  46.3092283 103.9036981
  89.9728494  45.6962786 104.9373666  90.5259533  46.1158239 105.5963689
  90.2098581  44.7698534 104.9796622  85.1974665  48.9334784  97.3017107
  86.0593829  49.2589683  97.5612924  85.3825009  48.1466280  96.7890173
  77.2142081  57.0157124 109.5797296  76.5205552  56.6011077 109.0667250
  77.9615072  57.0577661 108.9830715  93.3507301  47.8063311 104.4452330
  92.7705970  48.4648115 104.0630382  93.0843234  46.9840655 104.0339747
  91.8010868  47.2068368 106.6473650  92.3010646  47.3184903 105.8387969
  92.4446476  46.9029421 107.2874459  79.1278823  56.9475378 107.4563311
  79.1049511  57.0463065 106.5045194  79.4379460  57.7940529 107.7780477
  92.1332179  49.9663401 103.5008678  91.2458034  50.2513052 103.2828873
  92.5486168  49.8057165 102.6535955  95.4846716  49.9909922 107.2163017
  96.2607106  50.4806375 107.4887634  94.7594850  50.4167976 107.6734887
  91.2775393  59.7308076  97.5956698  91.9811243  59.9358078  98.2114354
  90.5538042  60.2984838  97.8605782  92.1073203  55.4817937 103.7158968
  92.0508405  55.9386489 102.8766601  92.6601546  54.7208622 103.5381811
  95.9178009  51.2707669 104.5409088  95.6614943  50.8704305 105.3717295
  95.2930877  51.9851463 104.4159227  93.1862090  60.1690605  99.6455158
  94.0207694  59.7371804  99.4632633  93.0246433  59.9972619 100.5732053
  92.8407982  56.6722718 101.0111497  92.7856786  56.5066990 100.0699942
  92.2154038  57.3798751 101.1673687  86.1504108  46.1730827 100.5896816
  86.1382778  47.1172667 100.7465087  87.0427530  45.9900973 100.2956277
  89.9656227  42.7673604 104.8442753  89.1988623  42.2132091 104.9899435
  90.3766932  42.8395473 105.7056904  94.5214326  66.4675380  97.3588018
  93.6443792  66.3464181  96.9950264  94.9972079  65.6761458  97.1066906
  97.2669635  67.4039767  97.1605128  96.3601090  67.1072879  97.2367841
  97.5445616  67.1069585  96.2939414  96.0368419  64.2626702  97.3017107
  96.8987583  64.5881600  97.5612924  96.2218764  63.4758198  96.7890173
  96.9897862  61.5022745 100.5896816  96.9776532  62.4464585 100.7465087
  97.8821284  61.3192890 100.2956277  61.9641625   3.5109530  92.3914057
  61.4006490   3.4199467  91.6230345  61.8494020   2.6909435  92.8716550
  67.5441184   7.1780498  87.7028522  66.8929164   7.7634578  87.3162536
  68.3385547   7.7086693  87.7623560  61.4696811   4.2669635  88.1015656
  62.2427687   3.7198622  87.9628532  61.8222210   5.1313884  88.3130118
  69.0216449   4.8670930  88.2397506  68.3862282   4.9405556  88.9518411
  68.6913855   5.4564529  87.5616586  63.5259378   2.3290407  87.9358481
  63.4095636   1.6535311  88.6039566  63.6361637   1.8422781  87.1190634
  65.8690918   1.7900554  91.6405171  65.5049126   1.2631175  92.3518092
  66.7258034   1.3999023  91.4671656  63.2492518  12.0451753  91.2703317
  63.1716548  12.9959578  91.3491798  62.6454162  11.6997626  91.9278243
  69.7940275   4.7295403  95.8407101  69.1649137   4.8941117  95.1383169
  69.4065937   5.1437013  96.6118065  73.6729507   5.6649841  93.1951465
  72.9880545   6.0448742  92.6448498  73.7573356   6.2745168  93.9283413
  65.3468237   4.4669811  93.1057187  65.8106582   4.7457514  92.3161809
  65.0825035   3.5653256  92.9230277  72.0426266   6.1881755  97.9669166
  72.8643710   5.7861943  97.6851848  72.0388669   6.0849990  98.9185282
  65.5230887   7.4033906  89.9908857  65.3876562   8.2485442  90.4193705
  66.0640700   7.6053184  89.2274791  58.9760285   4.9209344  90.5636782
  59.4884805   5.7152594  90.7142347  59.6282998   4.2235635  90.4970383
  60.7855169   8.0375100  92.6459535  60.9621798   8.9593065  92.4580519
  61.5812003   7.7233520  93.0753915  61.9086485   9.5553274  98.6469877
  62.4593910   9.4270338  97.8746871  61.0697961   9.8548163  98.2964770
  56.9409202   3.2497999  91.3396352  57.7784424   3.6595007  91.1230060
  57.1187469   2.3097441  91.3096546  67.0706369   4.9490395  90.5032921
  66.5427730   4.2143154  90.1906158  66.5693871   5.7265071  90.2572889
  72.0499215   3.1439415  95.6199967  71.3922889   3.8338676  95.7080096
  72.8539614   3.5335847  95.9633953  65.2158969   2.7670605  83.5067894
  64.3086031   2.5359858  83.7059043  65.7130001   1.9708224  83.6941875
  68.1227048  11.4768112  86.4264580  67.4488746  11.7799809  87.0349538
  68.5092870  12.2797192  86.0770037  66.3947202   2.8683200  88.0291884
  65.4858422   2.5842233  88.1264353  66.4242286   3.2882278  87.1695191
  71.6266470   6.4789789  91.7983051  71.1728797   5.6380699  91.8548242
  70.9960436   7.1151188  92.1357831  70.0699409   8.3166286  92.7332869
  70.3622383   8.8771343  92.0145235  70.5798030   8.6094847  93.4886029
  66.0923290   4.4091943  85.3679962  65.6542720   3.6927802  84.9085600
  66.8333731   4.6368058  84.8065054  65.0333034   9.0946637  93.8226323
  64.9909213   9.3207483  92.8934855  65.9495733   8.8610012  93.9712124
  74.2365784   4.7525667  96.4367552  74.6702291   4.6600957  97.2850606
  74.9497365   4.7283168  95.7987568  63.1498835   5.9709666  93.6188285
  63.9439433   5.4759986  93.4170860  62.4390527   5.4427529  93.2555991
  67.9693679   8.3527762  97.9700653  68.0230702   8.9218698  98.7378369
  67.1008461   8.5229647  97.6054690  59.4581598   0.1152748  89.6948038
  58.5279186   0.0537203  89.9118000  59.5539070  -0.4071300  88.8984679
  65.7270111   6.5438688  97.2986122  65.5881197   6.1757472  98.1712061
  64.9384707   7.0586327  97.1270080  66.3218263  11.6447784  88.6411659
  66.4970019  11.1735828  89.4557282  65.6351051  12.2713551  88.8692920
  67.2775326   5.9220291  94.6874960  66.9425159   5.8821061  95.5832610
  66.7779272   5.2565007  94.2145370  70.2134518   3.2676325  84.9612020
  69.5963688   2.5423153  84.8645073  69.7451006   4.0285685  84.6179094
  60.8879348  14.7937147  95.4151519  61.1275946  15.4255671  96.0930538
  60.0448545  14.4425187  95.7016878  65.4007210  10.6016270  97.8193023
  65.3277382  11.4071241  98.3312328  64.9584603  10.8008235  96.9941045
  65.1896990   9.8388040  91.3295845  64.4064512  10.3809720  91.4234069
  65.8889735  10.3562019  91.7290086  67.8605894  10.5003104  99.9751182
  68.5733866  11.1350569  99.9027083  67.3695922  10.5966970  99.1591184
  69.5823420   4.4054356  91.5468473  68.6479699   4.5255819  91.3773178
  69.7600089   3.5026823  91.2828483  71.0372203   6.5915497  89.0804660
  71.3132047   6.4772092  89.9898534  70.1676702   6.1932982  89.0416833
  67.6726267  10.8401848  92.7237473  67.8548661  10.0223504  93.1865226
  68.4959253  11.0569540  92.2862363  68.0068432   9.7670033  89.9852522
  68.5356199   9.2562487  89.3722684  68.2696652   9.4512563  90.8498055
  61.3624180  10.8185150  92.7450298  60.6934556  11.3031277  92.2614338
  61.2237050  11.0654370  93.6593676  65.5029449  12.8528893  99.3432956
  66.0547757  13.0160515 100.1082041  65.8435642  13.4433331  98.6712981
  56.7311757  -0.9196395  89.5246230  57.0265199  -1.8285717  89.4713284
  55.8299793  -0.9408656  89.2027232  68.6397836  10.8010869  96.3296638
  68.5148976  10.0000608  95.8207584  69.2976927  11.2957062  95.8410608
  70.7032745   8.6019889  97.9576188  69.7563080   8.4825240  97.8854515
  71.0515518   7.7142387  98.0402450  67.7079178   8.3972605  94.1580541
  67.5604140   7.4689312  94.3388111  68.5332671   8.4192696  93.6737616
  71.3113300   9.2201164  95.2445413  72.2359847   9.0144025  95.1069864
  71.1428603   8.9717565  96.1534755  71.1008616   9.7386831  90.6007505
  71.2745493   9.1733254  89.8481357  71.5937507  10.5387726  90.4186995
  72.0883788   9.0553596  87.7004403  72.7834693   9.6760288  87.9191718
  72.4306939   8.2048947  87.9756781  73.9875212   6.5053301  89.2291734
  74.5126536   6.8440574  88.5041054  73.8997564   5.5700316  89.0454868
  65.6715872  12.5725284  93.5886987  65.2320863  12.0801663  94.2819844
  66.4223989  12.0298252  93.3479062  58.1508211   8.7636825  93.5911615
  58.9766231   8.4640597  93.2110259  57.8002263   7.9944448  94.0401404
  63.1189744   8.1163293  95.6609289  62.4969754   7.4533998  95.3611517
  63.7894611   8.1424425  94.9782936  62.6803251   6.6667217  89.1367749
  62.8291372   7.3502681  88.4834422  63.4869695   6.6472307  89.6517205
  60.4355884   2.6932394  90.1428818  60.1901926   1.7894724  90.3409028
  60.6051799   2.6949545  89.2008296  66.1798657   9.1615347  86.6079497
  65.6072624   9.7805534  86.1549968  66.7531451   9.7114709  87.1419419
  69.3995917   9.4452497  87.7388079  70.3326590   9.3798059  87.9420954
  69.3119130  10.2808764  87.2802612  72.0283933   8.7618368  84.6992026
  71.9497565   8.4278231  85.5927784  72.8493600   9.2540136  84.6983499
  58.4628922  10.8949440  95.3125429  58.3283390  10.1349840  94.7463428
  58.0460984  11.6190339  94.8454218  69.5987885   6.0786363  84.3202005
  70.3023735   6.2836366  84.9359660  68.8750534   6.6463125  84.5851088
  61.6198048  11.7918757  95.5243872  61.5030432  12.7364189  95.4222562
  60.7990494  11.4892318  95.9129671  71.5074583   6.5168892  86.3700465
  72.3420186   6.0850091  86.1877940  71.3458925   6.3450906  87.2977359
  71.1620475   3.0201006  87.7356804  71.1069279   2.8545277  86.7945248
  70.5366530   3.7277038  87.8918994  62.6452562  12.4447018  98.7399801
  63.5479809  12.4770629  99.0566296  62.4189932  11.5147469  98.7546136
  64.4006164  11.1978005  95.4009879  63.4501795  11.1979867  95.2874251
  64.7038650  10.4510740  94.8845914  80.1358858  17.0338543  96.4655642
  80.7737268  16.9145291  95.7618982  80.0179701  17.9819387  96.5243594
  76.9448564  16.9865972  96.4017166  76.6067075  16.8707036  95.5137701
  77.8138332  16.5857137  96.3818172  72.8035380  18.8401448  92.3914057
  72.2400245  18.7491385  91.6230345  72.6887775  18.0201352  92.8716550
  77.4268347  18.1400823 102.3603372  77.4156988  17.7453621 101.4883875
  77.5888986  17.4066896 102.9537143  70.3499812  20.3352640  95.2298278
  71.1421103  19.9943464  94.8144577  70.5896462  20.4447615  96.1500431
  78.3834938  22.5072416  87.7028522  77.7322918  23.0926496  87.3162536
  79.1779301  23.0378611  87.7623560  72.3090565  19.5961553  88.1015656
  73.0821441  19.0490540  87.9628532  72.6615964  20.4605802  88.3130118
  74.1475608  20.9237935 101.3082556  73.8565474  21.8283566 101.1929222
  74.7832592  20.9654463 102.0226625  75.0731815  18.3014784  97.8983915
  75.6695387  18.0770806  97.1840878  75.1306786  17.5599529  98.5009363
  74.6456843  15.7554219  85.7334106  74.8982364  15.2335740  84.9717569
  73.7081402  15.5920364  85.8360790  79.6900126  14.7589997  93.5408850
  80.4763215  14.3409420  93.1899267  79.9538830  15.6636089  93.7090498
  79.8610203  20.1962848  88.2397506  79.2256036  20.2697474  88.9518411
  79.5307610  20.7856446  87.5616586  85.0908553  14.6965230  94.4441828
  85.8233725  14.1264447  94.6779658  84.3347909  14.3086831  94.8848334
  74.3653132  17.6582325  87.9358481  74.2489390  16.9827228  88.6039566
  74.4755392  17.1714699  87.1190634  76.7084673  17.1192472  91.6405171
  76.3442880  16.5923093  92.3518092  77.5651789  16.7290941  91.4671656
  76.3490160  12.1482372  86.6366519  76.5164562  13.0162608  87.0036990
  76.1587329  12.3109653  85.7127808  79.1065493  20.6099351  98.3032349
  78.8066216  21.5124389  98.1948157  78.7616553  20.3431534  99.1553502
  72.5577975  17.0613147  94.3369054  71.6328471  16.9289361  94.5446746
  72.8062388  17.8407367  94.8338996  82.5062637  13.1281891  95.9829787
  81.5979514  13.0597299  95.6888548  82.4550233  13.6053836  96.8111612
  76.3279381  14.6040029  87.6213186  76.2079006  15.0497080  88.4598666
  75.6331969  14.9525347  87.0626724  69.9186786  16.7046421  95.1712843
  70.0479167  16.9580900  96.0852255  69.2384237  17.2974129  94.8517498
  74.0886273  27.3743671  91.2703317  74.0110303  28.3251496  91.3491798
  73.4847917  27.0289543  91.9278243  82.0264447  15.0761502  88.4493520
  82.9382303  15.3088889  88.2741218  81.5174094  15.6598547  87.8868599
  74.8349875  17.3556990 103.4882651  75.5764559  17.8942034 103.2117475
  74.1286860  17.9823278 103.6454203  80.3105215  19.4986130 102.0854813
  80.7188571  19.0568541 101.3409445  79.5882476  18.9238758 102.3389005
  76.6636285  14.4358737  99.4588369  77.5097480  14.8598150  99.6023018
  76.6034922  13.7792361 100.1526933  80.6334029  20.0587321  95.8407101
  80.0042892  20.2233035  95.1383169  80.2459691  20.4728930  96.6118065
  84.5123261  20.9941759  93.1951465  83.8274299  21.3740660  92.6448498
  84.5967111  21.6037085  93.9283413  81.7674193  18.6401718  99.7946809
  81.9791088  19.2833478  99.1181190  81.7203941  17.8064034  99.3268739
  79.3700422  11.2519538  96.6983381  78.5084901  11.5500792  96.9900118
  79.3962856  11.4689937  95.7664413  76.1861991  19.7961729  93.1057187
  76.6500337  20.0749432  92.3161809  75.9218789  18.8945173  92.9230277
  73.0786072  19.3433210  96.0436950  73.6487429  19.7720479  95.4054434
  73.6694184  19.0615795  96.7421135  75.1230877  15.9184881  89.9146752
  75.8254921  16.3705925  90.3820678  74.7911506  15.2768700  90.5426645
  73.5711239  14.5096638 104.2897961  72.9409899  15.1912919 104.5233358
  73.4647327  14.3979719 103.3451099  68.8656211  14.1768434  95.2163885
  68.0755265  14.4325962  94.7403996  69.3567459  14.9916772  95.3215926
  82.8820021  21.5173673  97.9669166  83.7037464  21.1153860  97.6851848
  82.8782424  21.4141907  98.9185282  70.8170957  14.5413013  92.1747362
  70.0202120  14.6531707  92.6930858  70.5896549  14.8799665  91.3088252
  76.6476624  21.0657716 100.1229877  76.7121057  21.5278124 100.9588048
  75.9387548  20.4355081 100.2512186  67.1493914  14.4298924  97.6478876
  67.4001953  15.3145934  97.9136452  67.6853463  14.2503526  96.8753968
  76.3624642  22.7325824  89.9908857  76.2270317  23.5777360  90.4193705
  76.9034454  22.9345101  89.2274791  69.8154039  20.2501262  90.5636782
  70.3278560  21.0444512  90.7142347  70.4676752  19.5527552  90.4970383
  71.6248924  23.3667018  92.6459535  71.8015552  24.2884983  92.4580519
  72.4205757  23.0525437  93.0753915  70.9101280  15.4131650 102.5221698
  70.7954796  14.5116907 102.8228797  70.0545798  15.6595347 102.1706515
  77.9893118  23.3549390 104.1209199  77.5456972  22.5685769 103.8030103
  78.6510332  23.5428541 103.4553090  72.7480239  24.8845192  98.6469877
  73.2987665  24.7562255  97.8746871  71.9091715  25.1840081  98.2964770
  80.0874356  23.6352190 102.1490600  80.0692832  24.4561071 101.6570869
  81.0094276  23.5106266 102.3740741  76.5447410  21.1496320 102.9914109
  77.0775747  20.3884608 102.7613417  76.0161492  20.8569972 103.7338263
  67.7802956  18.5789916  91.3396352  68.6178178  18.9886925  91.1230060
  67.9581224  17.6389358  91.3096546  79.6767388  16.2464997  87.0280185
  79.1614012  17.0169601  87.2668573  79.4044697  15.5730133  87.6513247
  77.2614499  11.0914698  92.0865424  76.4056096  10.7021548  91.9071063
  77.6741451  11.1706658  91.2265209  78.7913646   8.6261041  96.4856984
  78.2878441   8.5891176  95.6724789  79.0844253   9.5353784  96.5453640
  75.0356532   8.7099771  95.4923165  75.9009528   8.5142579  95.1329055
  75.1034041   8.4810122  96.4192522  84.6501662  18.9997351  88.9633359
  83.8731105  18.6608511  88.5188521  85.3293143  19.0049975  88.2888324
  79.4653691  14.1192089  88.8539967  79.1603827  14.4338238  89.7050110
  80.4184133  14.1973509  88.8967300  77.9100123  20.2782312  90.5032921
  77.3821485  19.5435072  90.1906158  77.4087626  21.0556989  90.2572889
  82.8892969  18.4731333  95.6199967  82.2316644  19.1630594  95.7080096
  83.6933368  18.8627765  95.9633953  72.6418851  10.9401979  92.8639532
  73.2162603  10.7177160  92.1312725  73.2289833  11.0090673  93.6168133
  81.6998428  16.8275705  93.6703909  82.2130310  17.4605697  94.1725618
  82.3499652  16.2276901  93.3047269  72.9688438  12.9706440  86.8835417
  72.1325750  13.3081126  87.2044692  72.8293208  12.8355419  85.9462554
  74.9441518   7.8143227  91.5914602  74.2905931   7.4992245  90.9671216
  74.9021993   7.1918968  92.3174424  76.0552723  18.0962523  83.5067894
  75.1479785  17.8651776  83.7059043  76.5523755  17.3000142  83.6941875
  78.9620802  26.8060030  86.4264580  78.2882501  27.1091726  87.0349538
  79.3486624  27.6089110  86.0770037  78.1779259  14.3025161  95.9162249
  77.2601820  14.5240108  95.7583937  78.5939402  14.3771471  95.0573957
  78.9614307  15.7016577  91.0464929  79.7086126  16.2137974  90.7372051
  79.2305896  15.3800629  91.9069323  77.2340957  18.1975117  88.0291884
  76.3252176  17.9134150  88.1264353  77.2636041  18.6174196  87.1695191
  82.4660224  21.8081707  91.7983051  82.0122551  20.9672617  91.8548242
  81.8354191  22.4443105  92.1357831  81.4093144  12.7373693  93.0283719
  80.6715901  12.2251079  93.3593961  81.6619917  12.2974075  92.2166996
  80.9093163  23.6458204  92.7332869  81.2016138  24.2063261  92.0145235
  81.4191784  23.9386765  93.4886029  67.8029127  15.9180632  92.0107086
  67.6053527  15.3249992  91.2858153  67.2475791  15.6132842  92.7283025
  75.7825851  15.8103738  94.1301679  75.8374461  14.8577574  94.0544156
  74.9717053  15.9663177  94.6142978  76.9317045  19.7383861  85.3679962
  76.4936475  19.0219720  84.9085600  77.6727485  19.9659976  84.8065054
  73.7218211  14.4280798  91.8892058  72.9086076  14.7274968  92.2957250
  74.2177205  14.0336487  92.6066540  75.8726789  24.4238555  93.8226323
  75.8302967  24.6499401  92.8934855  76.7889487  24.1901929  93.9712124
  79.3192422  14.8922622 100.7206952  79.6741810  15.1194095 101.5801418
  79.9664554  15.2240999 100.0984207  85.0490159  18.0141058  91.4256281
  84.9108058  18.2042654  90.4977470  84.6926378  18.7760441  91.8824332
  73.2132285  11.9999153  97.5053293  73.8531665  11.8587912  96.8076256
  72.3809816  11.7133667  97.1291895  85.0759539  20.0817585  96.4367552
  85.5096046  19.9892874  97.2850606  85.7891120  20.0575086  95.7987568
  73.9892589  21.3001584  93.6188285  74.7833188  20.8051904  93.4170860
  73.2784282  20.7719447  93.2555991  78.8087434  23.6819679  97.9700653
  78.8624456  24.2510616  98.7378369  77.9402215  23.8521564  97.6054690
  70.2975353  15.4444665  89.6948038  69.3672941  15.3829121  89.9118000
  70.3932825  14.9220618  88.8984679  70.2160902  11.9699478  92.2826280
  70.4767719  12.8844811  92.1735440  71.0378074  11.5023921  92.4322893
  71.6885827  13.3837235  99.4525104  72.3608881  13.1754598  98.8037753
  70.8615614  13.1859321  99.0130337  77.7675534  17.8479941  99.5287585
  78.6967594  17.9991101  99.3556552  77.3466564  17.9363962  98.6736231
  76.5663865  21.8730606  97.2986122  76.4274951  21.5049390  98.1712061
  75.7778462  22.3878245  97.1270080  77.1612017  26.9739702  88.6411659
  77.3363773  26.5027745  89.4557282  76.4744805  27.6005468  88.8692920
  78.1169081  21.2512208  94.6874960  77.7818913  21.2112978  95.5832610
  77.6173026  20.5856924  94.2145370  72.0913325  16.6579838 100.2127541
  71.9533122  15.9260077 100.8139080  73.0018248  16.5688738  99.9311729
  81.0528272  18.5968243  84.9612020  80.4357443  17.8715071  84.8645073
  80.5844761  19.3577603  84.6179094  74.7195625  16.3699798  99.7011221
  75.4295244  15.7292990  99.6597839  74.6764933  16.6212693 100.6237402
  82.7082404  23.3067151 102.6217800  82.6494950  22.6226371 101.9548383
  83.1101922  24.0486141 102.1698426  73.4324559  13.3565016 101.5206861
  72.8961916  12.9055754 102.1728457  72.8441268  13.4910924 100.7777325
  71.7273103  30.1229065  95.4151519  71.9669701  30.7547589  96.0930538
  70.8842299  29.7717105  95.7016878  72.8426818  12.8153667  84.0833324
  71.9656284  12.6942468  83.7195571  73.3184571  12.0239745  83.8312213
  82.7099811  21.2706735 100.8531780  81.8226590  20.9332657 100.9758179
  83.2798362  20.5389766 101.0900545  64.3628958  17.6030827  94.1774831
  65.0499998  17.2892557  93.5895847  64.2077087  18.5072191  93.9042083
  69.1663680  12.4921023  98.6059855  69.0821869  11.8846693  97.8710265
  68.3446387  12.9830042  98.6069351  76.2400965  25.9308187  97.8193023
  76.1671136  26.7363159  98.3312328  75.7978358  26.1300153  96.9941045
  76.0290744  25.1679957  91.3295845  75.2458266  25.7101638  91.4234069
  76.7283489  25.6853937  91.7290086  79.3387394  10.9774587  93.9730050
  79.8356094  10.2244549  93.6531120  78.5674376  11.0138903  93.4073259
  87.1917152  16.6814952  95.6148342  87.1807028  17.5639668  95.2442275
  86.3234531  16.3286503  95.4202879  78.6999648  25.8295021  99.9751182
  79.4127620  26.4642486  99.9027083  78.2089677  25.9258887  99.1591184
  80.4217175  19.7346274  91.5468473  79.4873454  19.8547737  91.3773178
  80.5993843  18.8318741  91.2828483  75.9222363  13.1191970  93.7001735
  75.5520151  12.5663010  94.3882640  76.4181455  12.5150103  93.1476735
  83.8089726  15.5763593  92.0818508  84.2750178  16.4091585  92.0078810
  84.2597227  15.1108575  92.7863766  73.7511562  23.5789465 100.7956753
  74.4521021  24.2125948 100.9486147  73.2806677  23.9204196 100.0352392
  81.8765957  21.9207415  89.0804660  82.1525801  21.8064009  89.9898534
  81.0070456  21.5224899  89.0416833  81.5512848  16.1334072  98.6209303
  80.8984298  16.3809980  97.9661756  81.9293227  15.3198210  98.2871780
  78.5120021  26.1693765  92.7237473  78.6942416  25.3515421  93.1865226
  79.3353007  26.3861458  92.2862363  78.8462187  25.0961951  89.9852522
  79.3749953  24.5854405  89.3722684  79.1090406  24.7804481  90.8498055
  69.3479280  23.1125820  97.7287855  69.9332716  22.3669508  97.8615760
  69.1504118  23.4229777  98.6124519  72.2017935  26.1477067  92.7450298
  71.5328310  26.6323195  92.2614338  72.0630805  26.3946288  93.6593676
  63.9396934  15.6831420  96.4492298  63.9781034  15.1495011  97.2429417
  63.4337227  15.1566626  95.8303276  76.3423203  28.1820811  99.3432956
  76.8941511  28.3452432 100.1082041  76.6829397  28.7725249  98.6712981
  71.3187697  10.5295961  99.9454841  71.3829023  11.3910791  99.5332238
  71.2554817   9.9169962  99.2127199  81.1934078  23.0082068 105.1981610
  81.7373982  23.6212027 104.7036565  80.6120923  23.5661647 105.7148623
  67.5705512  14.4095522  89.5246230  67.8658953  13.5006201  89.4713284
  66.6693548  14.3883262  89.2027232  79.4791591  26.1302786  96.3296638
  79.3542730  25.3292526  95.8207584  80.1370682  26.6248980  95.8410608
  71.0999759  12.4851519  95.5073778  70.3786345  13.0987487  95.3681252
  71.8893015  13.0209284  95.4290424  81.5426499  23.9311806  97.9576188
  80.5956835  23.8117158  97.8854515  81.8909272  23.0434304  98.0402450
  73.9026072   9.8205945 101.7814430  74.4260474  10.0668242 102.5440740
  73.6838406  10.6525980 101.3617568  69.2993354  12.0909620  89.6485555
  68.9706060  11.2106999  89.4660661  69.6532724  12.0357289  90.5361944
  78.5472932  23.7264523  94.1580541  78.3997895  22.7981230  94.3388111
  79.3726426  23.7484613  93.6737616  72.4135177  12.3782590  90.0161033
  72.7531249  12.9068511  89.2939641  72.8607297  12.7162996  90.7919599
  82.1507054  24.5493081  95.2445413  83.0753602  24.3435943  95.1069864
  81.9822358  24.3009483  96.1534755  75.1078618  10.7619640  99.4664101
  74.7675438   9.9627453  99.8684781  74.4017624  11.0621351  98.8940934
  75.7595089   7.8468953  97.9191424  76.5821159   7.3729431  97.7970314
  76.0033153   8.6259437  98.4190110  74.4003324  10.8757211  88.2154325
  75.1211686  11.2538464  87.7118042  73.7768628  11.5946088  88.3189303
  78.5434447  11.5802360  89.1512658  78.7598061  12.4626998  88.8501486
  78.0628514  11.1888574  88.4218300  73.2833668  14.5388073  95.7283402
  73.1378249  14.8528377  96.6207684  72.8058872  15.1572974  95.1754301
  75.1430051  11.5290621  95.7764292  75.1291620  10.6331715  95.4396590
  75.8602479  11.5361285  96.4102578  76.9956182  11.9627962  97.8217419
  76.7373960  12.8845032  97.8201750  76.4641222  11.5658396  98.5117883
  81.9402370  25.0678749  90.6007505  82.1139248  24.5025171  89.8481357
  82.4331262  25.8679644  90.4186995  67.7579330  17.0793418  98.6671064
  67.2132798  17.8553226  98.7991338  68.6358680  17.4264222  98.5090185
  74.5466947  10.4105002  91.0451862  74.6682858   9.4821648  91.2442750
  74.2568989  10.4243688  90.1330177  77.4158137   8.0959912  94.1818582
  77.4379834   8.1599245  93.2270561  77.8326196   7.2564421  94.3759088
  87.7941762  17.8315172  92.2197804  88.2372908  17.0822497  91.8216928
  86.9168272  17.8225308  91.8371536  82.9277543  24.3845513  87.7004403
  83.6228448  25.0052206  87.9191718  83.2700693  23.5340864  87.9756781
  68.5445352  16.2063314 101.5601220  67.8027088  16.3545950 102.1465851
  68.2238096  16.4671580 100.6967970  84.8268966  21.8345219  89.2291734
  85.3520290  22.1732491  88.5041054  84.7391319  20.8992234  89.0454868
  76.4889015  25.7479292 101.3581610  76.7976141  25.5028439 102.2304310
  77.2864497  25.9525931 100.8700481  76.5109627  27.9017202  93.5886987
  76.0714617  27.4093581  94.2819844  77.2617744  27.3590170  93.3479062
  68.9901966  24.0928743  93.5911615  69.8159986  23.7932515  93.2110259
  68.6396018  23.3236365  94.0401404  73.9583499  23.4455211  95.6609289
  73.3363508  22.7825916  95.3611517  74.6288366  23.4716343  94.9782936
  67.1910571  22.0115069  94.5500549  66.3542479  21.5837244  94.3684550
  67.1634216  22.2047513  95.4871340  73.5197006  21.9959134  89.1367749
  73.6685126  22.6794599  88.4834422  74.3263449  21.9764224  89.6517205
  76.2607315  12.6768372 102.0088153  75.3910624  12.9701938 101.7370742
  76.4966795  13.2608817 102.7295417  87.3374626  19.3020410  94.6120252
  88.1721518  19.7410214  94.7757812  87.4733755  18.8259063  93.7928498
  71.2749639  18.0224312  90.1428818  71.0295681  17.1186642  90.3409028
  71.4445553  18.0241463  89.2008296  70.5445286  13.7552670  87.6414980
  69.8514531  13.8297025  86.9855016  70.2997038  12.9913013  88.1636496
  77.0192411  24.4907265  86.6079497  76.4466378  25.1097452  86.1549968
  77.5925205  25.0406627  87.1419419  80.2389671  24.7744415  87.7388079
  81.1720344  24.7089977  87.9420954  80.1512884  25.6100682  87.2802612
  82.8677688  24.0910285  84.6992026  82.7891319  23.7570149  85.5927784
  83.6887355  24.5832053  84.6983499  77.4039210  15.8268078  83.9495549
  78.3498315  15.6974286  84.0183967  77.0253455  15.0882740  84.4264977
  77.2877902  19.8785824 105.4096206  78.2080912  20.0564423 105.6036253
  77.2527485  18.9341869 105.2575905  75.5882127  13.7518054  83.8850434
  74.6813582  13.4551167  83.9613148  75.8658108  13.4547872  83.0184721
  66.5060067  15.0724417  94.3349481  66.1862852  14.2189726  94.0423855
  65.9593496  15.2872996  95.0907448  70.2839975  17.7886858  98.0518987
  70.5025985  18.7203966  98.0707021  70.6965749  17.4294833  98.8373791
  77.2044193   8.2954944  90.0394676  76.3944921   7.9502029  90.4149922
  77.8928610   7.9862487  90.6282287  79.1334741   7.3732991  91.6618972
  79.6865780   7.7928444  92.3208995  79.3704827   6.4468739  91.7041928
  74.3580912  10.6104989  84.0262414  75.2200076  10.9359888  84.2858231
  74.5431256   9.8236485  83.5135479  66.3748327  18.6927329  96.3042602
  65.6811799  18.2781282  95.7912557  67.1221318  18.7347865  95.7076021
  82.5113548   9.4833516  91.1697637  81.9312217  10.1418320  90.7875689
  82.2449481   8.6610860  90.7585054  80.9617115   8.8838573  93.3718957
  81.4616893   8.9955108  92.5633276  81.6052722   8.5799626  94.0119765
  75.0199110  16.7917203 106.2586798  74.5366192  17.5917563 106.4650687
  75.1060049  16.8025148 105.3054242  68.2885070  18.6245583  94.1808617
  68.2655758  18.7233270  93.2290500  68.5985706  19.4710734  94.5025783
  70.9472448  20.6821738  98.2955232  71.9015701  20.6505680  98.2285163
  70.7484971  20.2212361  99.1105458  71.5371830  19.2522854 100.8626029
  72.3564719  19.7466932 100.8860867  71.8108638  18.3354822 100.8343597
  81.2938426  11.6433606  90.2253985  80.4064281  11.9283257  90.0074180
  81.7092415  11.4827369  89.3781262  84.6452962  11.6680127  93.9408324
  85.4213352  12.1576580  94.2132941  83.9201096  12.0938181  94.3980194
  69.3022677  26.2241357  95.3125429  69.1677145  25.4641758  94.7463428
  68.8854739  26.9482257  94.8454218  80.4381640  21.4078281  84.3202005
  81.1417490  21.6128283  84.9359660  79.7144288  21.9755043  84.5851088
  81.2679450  17.1588142  90.4404275  81.2114651  17.6156693  89.6011907
  81.8207792  16.3978827  90.2627118  85.0784256  12.9477874  91.2654394
  84.8221190  12.5474510  92.0962602  84.4537124  13.6621668  91.1404534
  89.3896594  15.6873947  93.7725686  88.8296152  15.7567136  94.5457248
  88.7840097  15.5114932  93.0525182  72.4591802  27.1210674  95.5243872
  72.3424187  28.0656107  95.4222562  71.6384249  26.8184236  95.9129671
  82.3468337  21.8460810  86.3700465  83.1813941  21.4142008  86.1877940
  82.1852680  21.6742824  87.2977359  82.0014229  18.3492923  87.7356804
  81.9463033  18.1837195  86.7945248  81.3760284  19.0568956  87.8918994
  66.7906744  13.5860988 101.5618226  67.4365608  13.0759942 102.0505452
  66.5823895  14.3229669 102.1361652  75.3110355   7.8501032  87.3142123
  75.2989025   8.7942872  87.4710393  76.2033777   7.6671178  87.0201584
  73.4846317  27.7738936  98.7399801  74.3873563  27.8062546  99.0566296
  73.2583687  26.8439387  98.7546136  75.2399919  26.5269923  95.4009879
  74.2895550  26.5271784  95.2874251  75.5432405  25.7802657  94.8845914
  90.9752612  32.3630461  96.4655642  91.6131022  32.2437208  95.7618982
  90.8573455  33.3111305  96.5243594  87.7842318  32.3157889  96.4017166
  87.4460830  32.1998954  95.5137701  88.6532087  31.9149054  96.3818172
  83.6429134  34.1693366  92.3914057  83.0793999  34.0783303  91.6230345
  83.5281529  33.3493270  92.8716550  88.2662101  33.4692741 102.3603372
  88.2550742  33.0745539 101.4883875  88.4282741  32.7358814 102.9537143
  81.1893566  35.6644557  95.2298278  81.9814858  35.3235382  94.8144577
  81.4290216  35.7739532  96.1500431  89.2228693  37.8364333  87.7028522
  88.5716673  38.4218414  87.3162536  90.0173056  38.3670528  87.7623560
  83.1484320  34.9253470  88.1015656  83.9215196  34.3782458  87.9628532
  83.5009719  35.7897720  88.3130118  84.9869363  36.2529853 101.3082556
  84.6959229  37.1575484 101.1929222  85.6226347  36.2946380 102.0226625
  85.9125569  33.6306701  97.8983915  86.5089142  33.4062724  97.1840878
  85.9700541  32.8891447  98.5009363  85.4850598  31.0846137  85.7334106
  85.7376118  30.5627658  84.9717569  84.5475157  30.9212282  85.8360790
  90.5293881  30.0881915  93.5408850  91.3156970  29.6701338  93.1899267
  90.7932585  30.9928007  93.7090498  90.7003958  35.5254765  88.2397506
  90.0649791  35.5989392  88.9518411  90.3701364  36.1148364  87.5616586
  95.9302308  30.0257148  94.4441828  96.6627480  29.4556365  94.6779658
  95.1741663  29.6378749  94.8848334  85.2046887  32.9874243  87.9358481
  85.0883145  32.3119146  88.6039566  85.3149146  32.5006616  87.1190634
  87.5478427  32.4484390  91.6405171  87.1836635  31.9215011  92.3518092
  88.4045543  32.0582859  91.4671656  87.1883914  27.4774289  86.6366519
  87.3558317  28.3454526  87.0036990  86.9981084  27.6401571  85.7127808
  89.9459248  35.9391268  98.3032349  89.6459971  36.8416307  98.1948157
  89.6010307  35.6723451  99.1553502  83.3971729  32.3905065  94.3369054
  82.4722226  32.2581279  94.5446746  83.6456142  33.1699284  94.8338996
  93.3456391  28.4573808  95.9829787  92.4373269  28.3889217  95.6888548
  93.2943987  28.9345753  96.8111612  87.1673135  29.9331947  87.6213186
  87.0472761  30.3788998  88.4598666  86.4725724  30.2817264  87.0626724
  80.7580540  32.0338339  95.1712843  80.8872921  32.2872818  96.0852255
  80.0777991  32.6266047  94.8517498  84.9280027  42.7035589  91.2703317
  84.8504057  43.6543414  91.3491798  84.3241671  42.3581461  91.9278243
  92.8658201  30.4053420  88.4493520  93.7776058  30.6380807  88.2741218
  92.3567849  30.9890464  87.8868599  85.6743629  32.6848907 103.4882651
  86.4158314  33.2233951 103.2117475  84.9680615  33.3115196 103.6454203
  91.1498969  34.8278048 102.0854813  91.5582325  34.3860458 101.3409445
  90.4276231  34.2530675 102.3389005  87.5030039  29.7650655  99.4588369
  88.3491234  30.1890068  99.6023018  87.4428677  29.1084279 100.1526933
  91.4727784  35.3879238  95.8407101  90.8436646  35.5524953  95.1383169
  91.0853446  35.8020848  96.6118065  95.3517016  36.3233676  93.1951465
  94.6668054  36.7032578  92.6448498  95.4360865  36.9329003  93.9283413
  92.6067947  33.9693635  99.7946809  92.8184843  34.6125395  99.1181190
  92.5597696  33.1355952  99.3268739  90.2094176  26.5811456  96.6983381
  89.3478655  26.8792710  96.9900118  90.2356611  26.7981855  95.7664413
  87.0255746  35.1253647  93.1057187  87.4894091  35.4041350  92.3161809
  86.7612544  34.2237091  92.9230277  83.9179827  34.6725128  96.0436950
  84.4881184  35.1012396  95.4054434  84.5087939  34.3907713  96.7421135
  85.9624632  31.2476799  89.9146752  86.6648675  31.6997843  90.3820678
  85.6305260  30.6060618  90.5426645  84.4104993  29.8388556 104.2897961
  83.7803654  30.5204836 104.5233358  84.3041081  29.7271637 103.3451099
  79.7049966  29.5060352  95.2163885  78.9149020  29.7617880  94.7403996
  80.1961213  30.3208689  95.3215926  93.7213775  36.8465591  97.9669166
  94.5431219  36.4445778  97.6851848  93.7176178  36.7433825  98.9185282
  81.6564711  29.8704931  92.1747362  80.8595874  29.9823625  92.6930858
  81.4290303  30.2091583  91.3088252  87.4870379  36.3949634 100.1229877
  87.5514811  36.8570041 100.9588048  86.7781303  35.7646999 100.2512186
  77.9887669  29.7590842  97.6478876  78.2395707  30.6437852  97.9136452
  78.5247217  29.5795444  96.8753968  87.2018396  38.0617742  89.9908857
  87.0664071  38.9069277  90.4193705  87.7428209  38.2637019  89.2274791
  80.6547794  35.5793180  90.5636782  81.1672314  36.3736430  90.7142347
  81.3070507  34.8819470  90.4970383  82.4642678  38.6958936  92.6459535
  82.6409307  39.6176901  92.4580519  83.2599512  38.3817355  93.0753915
  81.7495035  30.7423568 102.5221698  81.6348550  29.8408825 102.8228797
  80.8939553  30.9887264 102.1706515  88.8286873  38.6841308 104.1209199
  88.3850727  37.8977687 103.8030103  89.4904086  38.8720459 103.4553090
  83.5873994  40.2137110  98.6469877  84.1381419  40.0854173  97.8746871
  82.7485470  40.5131999  98.2964770  90.9268111  38.9644108 102.1490600
  90.9086586  39.7852989 101.6570869  91.8488031  38.8398183 102.3740741
  87.3841165  36.4788237 102.9914109  87.9169502  35.7176526 102.7613417
  86.8555246  36.1861889 103.7338263  78.6196711  33.9081834  91.3396352
  79.4571933  34.3178842  91.1230060  78.7974978  32.9681276  91.3096546
  90.5161143  31.5756915  87.0280185  90.0007766  32.3461519  87.2668573
  90.2438451  30.9022051  87.6513247  88.1008254  26.4206615  92.0865424
  87.2449850  26.0313466  91.9071063  88.5135205  26.4998576  91.2265209
  89.6307400  23.9552959  96.4856984  89.1272196  23.9183094  95.6724789
  89.9238007  24.8645701  96.5453640  85.8750286  24.0391688  95.4923165
  86.7403283  23.8434497  95.1329055  85.9427795  23.8102040  96.4192522
  95.4895417  34.3289269  88.9633359  94.7124860  33.9900429  88.5188521
  96.1686898  34.3341892  88.2888324  90.3047446  29.4484007  88.8539967
  89.9997581  29.7630156  89.7050110  91.2577888  29.5265427  88.8967300
  88.7493878  35.6074230  90.5032921  88.2215239  34.8726990  90.1906158
  88.2481380  36.3848906  90.2572889  93.7286724  33.8023250  95.6199967
  93.0710398  34.4922512  95.7080096  94.5327123  34.1919682  95.9633953
  83.4812605  26.2693896  92.8639532  84.0556357  26.0469078  92.1312725
  84.0683588  26.3382591  93.6168133  92.5392182  32.1567623  93.6703909
  93.0524064  32.7897615  94.1725618  93.1893406  31.5568819  93.3047269
  83.8082192  28.2998357  86.8835417  82.9719505  28.6373044  87.2044692
  83.6686962  28.1647337  85.9462554  85.7835273  23.1435145  91.5914602
  85.1299685  22.8284162  90.9671216  85.7415747  22.5210886  92.3174424
  86.8946478  33.4254440  83.5067894  85.9873540  33.1943694  83.7059043
  87.3917510  32.6292059  83.6941875  89.0173013  29.6317079  95.9162249
  88.0995575  29.8532026  95.7583937  89.4333157  29.7063389  95.0573957
  89.8008061  31.0308494  91.0464929  90.5479880  31.5429892  90.7372051
  90.0699651  30.7092547  91.9069323  88.0734711  33.5267035  88.0291884
  87.1645931  33.2426068  88.1264353  88.1029795  33.9466114  87.1695191
  93.3053979  37.1373625  91.7983051  92.8516306  36.2964534  91.8548242
  92.6747945  37.7735023  92.1357831  92.2486898  28.0665611  93.0283719
  91.5109655  27.5542997  93.3593961  92.5013672  27.6265992  92.2166996
  91.7486918  38.9750121  92.7332869  92.0409892  39.5355178  92.0145235
  92.2585538  39.2678682  93.4886029  92.3498526  20.8441863  93.6225488
  92.6557402  19.9839226  93.3351403  93.0751130  21.4359483  93.4224482
  78.6422882  31.2472549  92.0107086  78.4447281  30.6541910  91.2858153
  78.0869546  30.9424759  92.7283025  86.6219605  31.1395656  94.1301679
  86.6768215  30.1869492  94.0544156  85.8110807  31.2955095  94.6142978
  87.7710799  35.0675779  85.3679962  87.3330229  34.3511638  84.9085600
  88.5121240  35.2951894  84.8065054  84.5611965  29.7572715  91.8892058
  83.7479831  30.0566886  92.2957250  85.0570959  29.3628404  92.6066540
  86.7120543  39.7530472  93.8226323  86.6696722  39.9791319  92.8934855
  87.6283242  39.5193847  93.9712124  90.1586177  30.2214540 100.7206952
  90.5135565  30.4486013 101.5801418  90.8058308  30.5532917 100.0984207
  95.8883914  33.3432976  91.4256281  95.7501812  33.5334572  90.4977470
  95.5320133  34.1052359  91.8824332  84.0526040  27.3291071  97.5053293
  84.6925419  27.1879830  96.8076256  83.2203571  27.0425584  97.1291895
  95.9153293  35.4109503  96.4367552  96.3489800  35.3184792  97.2850606
  96.6284874  35.3867003  95.7987568  84.8286344  36.6293501  93.6188285
  85.6226942  36.1343821  93.4170860  84.1178036  36.1011364  93.2555991
  89.6481188  39.0111597  97.9700653  89.7018211  39.5802533  98.7378369
  88.7795970  39.1813482  97.6054690  81.1369107  30.7736583  89.6948038
  80.2066695  30.7121039  89.9118000  81.2326579  30.2512536  88.8984679
  81.0554656  27.2991396  92.2826280  81.3161474  28.2136729  92.1735440
  81.8771829  26.8315838  92.4322893  82.5279582  28.7129153  99.4525104
  83.2002635  28.5046515  98.8037753  81.7009368  28.5151239  99.0130337
  88.6069288  33.1771859  99.5287585  89.5361348  33.3283019  99.3556552
  88.1860318  33.2655880  98.6736231  87.4057620  37.2022523  97.2986122
  87.2668706  36.8341308  98.1712061  86.6172216  37.7170163  97.1270080
  88.9562835  36.5804126  94.6874960  88.6212668  36.5404896  95.5832610
  88.4566781  35.9148842  94.2145370  82.9307079  31.9871756 100.2127541
  82.7926877  31.2551995 100.8139080  83.8412002  31.8980656  99.9311729
  91.8922027  33.9260160  84.9612020  91.2751197  33.2006989  84.8645073
  91.4238515  34.6869521  84.6179094  85.5589380  31.6991715  99.7011221
  86.2688998  31.0584908  99.6597839  85.5158688  31.9504610 100.6237402
  93.5476158  38.6359069 102.6217800  93.4888704  37.9518289 101.9548383
  93.9495677  39.3778059 102.1698426  84.2718314  28.6856933 101.5206861
  83.7355671  28.2347672 102.1728457  83.6835022  28.8202842 100.7777325
  82.5666857  45.4520983  95.4151519  82.8063455  46.0839507  96.0930538
  81.7236054  45.1009023  95.7016878  83.6820573  28.1445585  84.0833324
  82.8050039  28.0234385  83.7195571  84.1578326  27.3531663  83.8312213
  93.5493566  36.5998653 100.8531780  92.6620344  36.2624574 100.9758179
  94.1192117  35.8681684 101.0900545  75.2022713  32.9322744  94.1774831
  75.8893753  32.6184474  93.5895847  75.0470841  33.8364109  93.9042083
  80.0057435  27.8212941  98.6059855  79.9215624  27.2138611  97.8710265
  79.1840141  28.3121959  98.6069351  87.0794719  41.2600105  97.8193023
  87.0064890  42.0655077  98.3312328  86.6372112  41.4592071  96.9941045
  86.8684499  40.4971875  91.3295845  86.0852021  41.0393555  91.4234069
  87.5677244  41.0145855  91.7290086  90.1781149  26.3066505  93.9730050
  90.6749848  25.5536467  93.6531120  89.4068130  26.3430821  93.4073259
  98.0310906  32.0106870  95.6148342  98.0200782  32.8931585  95.2442275
  97.1628286  31.6578421  95.4202879  89.5393403  41.1586939  99.9751182
  90.2521375  41.7934404  99.9027083  89.0483431  41.2550805  99.1591184
  91.2610929  35.0638192  91.5468473  90.3267208  35.1839654  91.3773178
  91.4387598  34.1610658  91.2828483  86.7616117  28.4483887  93.7001735
  86.3913905  27.8954928  94.3882640  87.2575210  27.8442021  93.1476735
  94.6483481  30.9055511  92.0818508  95.1143933  31.7383503  92.0078810
  95.0990981  30.4400493  92.7863766  84.5905316  38.9081383 100.7956753
  85.2914776  39.5417865 100.9486147  84.1200431  39.2496114 100.0352392
  92.7159712  37.2499332  89.0804660  92.9919556  37.1355927  89.9898534
  91.8464211  36.8516817  89.0416833  92.3906602  31.4625990  98.6209303
  91.7378052  31.7101897  97.9661756  92.7686982  30.6490128  98.2871780
  89.3513776  41.4985683  92.7237473  89.5336170  40.6807339  93.1865226
  90.1746762  41.7153375  92.2862363  89.6855941  40.4253868  89.9852522
  90.2143708  39.9146323  89.3722684  89.9484161  40.1096398  90.8498055
  80.1873034  38.4417738  97.7287855  80.7726471  37.6961425  97.8615760
  79.9897873  38.7521694  98.6124519  83.0411689  41.4768985  92.7450298
  82.3722065  41.9615113  92.2614338  82.9024559  41.7238205  93.6593676
  74.7790689  31.0123338  96.4492298  74.8174788  30.4786928  97.2429417
  74.2730982  30.4858543  95.8303276  87.1816958  43.5112728  99.3432956
  87.7335266  43.6744350 100.1082041  87.5223151  44.1017166  98.6712981
  82.1581451  25.8587878  99.9454841  82.2222778  26.7202709  99.5332238
  82.0948571  25.2461880  99.2127199  81.6333724  27.9311011 103.5927875
  82.2605762  27.5488088 104.2065399  80.7761643  27.7125213 103.9583568
  92.0327832  38.3373986 105.1981610  92.5767736  38.9503944 104.7036565
  91.4514677  38.8953564 105.7148623  78.4099266  29.7387440  89.5246230
  78.7052708  28.8298118  89.4713284  77.5087302  29.7175179  89.2027232
  90.3185345  41.4594704  96.3296638  90.1936485  40.6584444  95.8207584
  90.9764436  41.9540897  95.8410608  81.9393513  27.8143436  95.5073778
  81.2180099  28.4279404  95.3681252  82.7286769  28.3501201  95.4290424
  92.3820254  39.2603724  97.9576188  91.4350589  39.1409075  97.8854515
  92.7303027  38.3726222  98.0402450  84.7419827  25.1497863 101.7814430
  85.2654229  25.3960160 102.5440740  84.5232160  25.9817898 101.3617568
  80.1387108  27.4201538  89.6485555  79.8099814  26.5398916  89.4660661
  80.4926479  27.3649206  90.5361944  89.3866687  39.0556440  94.1580541
  89.2391649  38.1273148  94.3388111  90.2120180  39.0776531  93.6737616
  83.2528931  27.7074507  90.0161033  83.5925004  28.2360429  89.2939641
  83.7001052  28.0454913  90.7919599  92.9900809  39.8784999  95.2445413
  93.9147356  39.6727860  95.1069864  92.8216112  39.6301400  96.1534755
  85.9472372  26.0911558  99.4664101  85.6069192  25.2919371  99.8684781
  85.2411378  26.3913269  98.8940934  86.5988844  23.1760871  97.9191424
  87.4214913  22.7021349  97.7970314  86.8426907  23.9551354  98.4190110
  85.2397078  26.2049129  88.2154325  85.9605441  26.5830382  87.7118042
  84.6162382  26.9238006  88.3189303  89.3828201  26.9094278  89.1512658
  89.5991816  27.7918916  88.8501486  88.9022268  26.5180491  88.4218300
  84.1227423  29.8679991  95.7283402  83.9772003  30.1820294  96.6207684
  83.6452626  30.4864891  95.1754301  85.9823805  26.8582539  95.7764292
  85.9685374  25.9623632  95.4396590  86.6996234  26.8653203  96.4102578
  87.8349936  27.2919879  97.8217419  87.5767714  28.2136950  97.8201750
  87.3034977  26.8950314  98.5117883  92.7796125  40.3970666  90.6007505
  92.9533002  39.8317089  89.8481357  93.2725016  41.1971561  90.4186995
  78.5973085  32.4085336  98.6671064  78.0526553  33.1845144  98.7991338
  79.4752435  32.7556140  98.5090185  85.3860701  25.7396919  91.0451862
  85.5076613  24.8113566  91.2442750  85.0962744  25.7535605  90.1330177
  88.2551892  23.4251830  94.1818582  88.2773589  23.4891163  93.2270561
  88.6719951  22.5856339  94.3759088  98.6335516  33.1607089  92.2197804
  99.0766662  32.4114415  91.8216928  97.7562026  33.1517226  91.8371536
  93.7671297  39.7137431  87.7004403  94.4622202  40.3344124  87.9191718
  94.1094448  38.8632782  87.9756781  79.3839107  31.5355232 101.5601220
  78.6420843  31.6837867 102.1465851  79.0631851  31.7963497 100.6967970
  95.6662721  37.1637136  89.2291734  96.1914045  37.5024409  88.5041054
  95.5785073  36.2284152  89.0454868  87.3282769  41.0771210 101.3581610
  87.6369896  40.8320357 102.2304310  88.1258251  41.2817849 100.8700481
  87.3503381  43.2309120  93.5886987  86.9108372  42.7385498  94.2819844
  88.1011498  42.6882087  93.3479062  79.8295720  39.4220661  93.5911615
  80.6553740  39.1224432  93.2110259  79.4789772  38.6528283  94.0401404
  84.7977253  38.7747129  95.6609289  84.1757263  38.1117834  95.3611517
  85.4682120  38.8008261  94.9782936  78.0304325  37.3406987  94.5500549
  77.1936234  36.9129161  94.3684550  78.0027971  37.5339430  95.4871340
  84.3590760  37.3251052  89.1367749  84.5078881  38.0086517  88.4834422
  85.1657204  37.3056142  89.6517205  87.1001069  28.0060289 102.0088153
  86.2304379  28.2993855 101.7370742  87.3360550  28.5900734 102.7295417
  98.1768381  34.6312328  94.6120252  99.0115272  35.0702132  94.7757812
  98.3127510  34.1550981  93.7928498  82.1143393  33.3516230  90.1428818
  81.8689435  32.4478560  90.3409028  82.2839308  33.3533380  89.2008296
  81.3839041  29.0844587  87.6414980  80.6908286  29.1588942  86.9855016
  81.1390793  28.3204931  88.1636496  90.0552697  20.6440189  95.0454470
  90.3354451  19.9763378  95.6714897  90.8403304  20.8369284  94.5329134
  87.8586166  39.8199183  86.6079497  87.2860133  40.4389370  86.1549968
  88.4318960  40.3698544  87.1419419  91.0783426  40.1036333  87.7388079
  92.0114099  40.0381894  87.9420954  90.9906638  40.9392600  87.2802612
  93.7071442  39.4202203  84.6992026  93.6285074  39.0862067  85.5927784
  94.5281109  39.9123971  84.6983499  88.2432964  31.1559995  83.9495549
  89.1892069  31.0266203  84.0183967  87.8647209  30.4174657  84.4264977
  88.1271657  35.2077741 105.4096206  89.0474666  35.3856340 105.6036253
  88.0921240  34.2633787 105.2575905  86.4275882  29.0809972  83.8850434
  85.5207337  28.7843084  83.9613148  86.7051863  28.7839790  83.0184721
  77.3453822  30.4016335  94.3349481  77.0256606  29.5481643  94.0423855
  76.7987250  30.6164913  95.0907448  81.1233729  33.1178776  98.0518987
  81.3419739  34.0495884  98.0707021  81.5359503  32.7586751  98.8373791
  88.0437947  23.6246861  90.0394676  87.2338676  23.2793946  90.4149922
  88.7322364  23.3154405  90.6282287  89.9728496  22.7024908  91.6618972
  90.5259534  23.1220362  92.3208995  90.2098582  21.7760656  91.7041928
  85.1974666  25.9396907  84.0262414  86.0593830  26.2651805  84.2858231
  85.3825010  25.1528403  83.5135479  77.2142082  34.0219247  96.3042602
  76.5205553  33.6073199  95.7912557  77.9615073  34.0639783  95.7076021
  93.3507303  24.8125433  91.1697637  92.7705972  25.4710237  90.7875689
  93.0843235  23.9902778  90.7585054  91.8010869  24.2130491  93.3718957
  92.3010647  24.3247026  92.5633276  92.4446477  23.9091544  94.0119765
  85.8592865  32.1209121 106.2586798  85.3759947  32.9209481 106.4650687
  85.9453804  32.1317066 105.3054242  79.1278824  33.9537500  94.1808617
  79.1049513  34.0525188  93.2290500  79.4379461  34.8002651  94.5025783
  81.7866202  36.0113655  98.2955232  82.7409456  35.9797598  98.2285163
  81.5878726  35.5504279  99.1105458  82.3765584  34.5814771 100.8626029
  83.1958473  35.0758850 100.8860867  82.6502392  33.6646740 100.8343597
  92.1332181  26.9725524  90.2253985  91.2458036  27.2575174  90.0074180
  92.5486170  26.8119287  89.3781262  95.4846717  26.9972045  93.9408324
  96.2607107  27.4868497  94.2132941  94.7594851  27.4230099  94.3980194
  80.1416431  41.5533275  95.3125429  80.0070899  40.7933676  94.7463428
  79.7248493  42.2774175  94.8454218  91.2775394  36.7370198  84.3202005
  91.9811244  36.9420201  84.9359660  90.5538043  37.3046960  84.5851088
  92.1073204  32.4880060  90.4404275  92.0508406  32.9448611  89.6011907
  92.6601547  31.7270744  90.2627118  95.9178010  28.2769792  91.2654394
  95.6614945  27.8766427  92.0962602  95.2930878  28.9913586  91.1404534
 100.2290348  31.0165865  93.7725686  99.6689906  31.0859054  94.5457248
  99.6233852  30.8406849  93.0525182  83.2985557  42.4502592  95.5243872
  83.1817941  43.3948024  95.4222562  82.4778003  42.1476153  95.9129671
  93.1862092  37.1752728  86.3700465  94.0207695  36.7433926  86.1877940
  93.0246434  37.0034741  87.2977359  92.8407984  33.6784841  87.7356804
  92.7856787  33.5129112  86.7945248  92.2154039  34.3860874  87.8918994
  77.6300499  28.9152905 101.5618226  78.2759362  28.4051859 102.0505452
  77.4217650  29.6521587 102.1361652  86.1504109  23.1792950  87.3142123
  86.1382779  24.1234790  87.4710393  87.0427531  22.9963095  87.0201584
  84.3240071  43.1030854  98.7399801  85.2267318  43.1354464  99.0566296
  84.0977441  42.1731305  98.7546136  86.0793673  41.8561840  95.4009879
  85.1289304  41.8563702  95.2874251  86.3826159  41.1094575  94.8845914
  89.9656229  19.7735727  91.5688059  89.1988624  19.2194213  91.7144742
  90.3766934  19.8457595  92.4302211 101.8146367  47.6922379  96.4655642
 102.4524777  47.5729126  95.7618982 101.6967210  48.6403223  96.5243594
  98.6236073  47.6449807  96.4017166  98.2854584  47.5290872  95.5137701
  99.4925841  47.2440972  96.3818172  94.4822889  49.4985283  92.3914057
  93.9187754  49.4075220  91.6230345  94.3675284  48.6785188  92.8716550
  99.1055856  48.7984659 102.3603372  99.0944497  48.4037457 101.4883875
  99.2676495  48.0650731 102.9537143  92.0287321  50.9936475  95.2298278
  92.8208612  50.6527300  94.8144577  92.2683971  51.1031450  96.1500431
 100.0622447  53.1656251  87.7028522  99.4110427  53.7510331  87.3162536
 100.8566810  53.6962446  87.7623560  95.8263117  51.5821770 101.3082556
  95.5352983  52.4867401 101.1929222  96.4620101  51.6238298 102.0226625
  96.7519324  48.9598619  97.8983915  97.3482896  48.7354641  97.1840878
  96.8094295  48.2183364  98.5009363  96.3244352  46.4138054  85.7334106
  96.5769873  45.8919576  84.9717569  95.3868911  46.2504200  85.8360790
 101.3687635  45.4173833  93.5408850 102.1550724  44.9993256  93.1899267
 101.6326339  46.3219925  93.7090498 101.5397712  50.8546683  88.2397506
 100.9043545  50.9281309  88.9518411 101.2095119  51.4440282  87.5616586
 106.7696062  45.3549066  94.4441828 107.5021234  44.7848283  94.6779658
 106.0135418  44.9670666  94.8848334  96.0440641  48.3166160  87.9358481
  95.9276899  47.6411064  88.6039566  96.1542901  47.8298534  87.1190634
  98.3872182  47.7776307  91.6405171  98.0230389  47.2506928  92.3518092
  99.2439298  47.3874776  91.4671656  98.0277669  42.8066207  86.6366519
  98.1952071  43.6746443  87.0036990  97.8374838  42.9693489  85.7127808
 100.7853002  51.2683186  98.3032349 100.4853725  52.1708225  98.1948157
 100.4404062  51.0015369  99.1553502  94.2365484  47.7196983  94.3369054
  93.3115980  47.5873197  94.5446746  94.4849897  48.4991202  94.8338996
 104.1850146  43.7865726  95.9829787 103.2767023  43.7181135  95.6888548
 104.1337742  44.2637671  96.8111612  98.0066890  45.2623864  87.6213186
  97.8866515  45.7080915  88.4598666  97.3119478  45.6109182  87.0626724
  91.5974295  47.3630256  95.1712843  91.7266676  47.6164735  96.0852255
  90.9171746  47.9557964  94.8517498  95.7673782  58.0327506  91.2703317
  95.6897812  58.9835331  91.3491798  95.1635425  57.6873379  91.9278243
 103.7051956  45.7345338  88.4493520 104.6169812  45.9672724  88.2741218
 103.1961603  46.3182382  87.8868599  96.5137384  48.0140825 103.4882651
  97.2552068  48.5525869 103.2117475  95.8074369  48.6407114 103.6454203
 101.9892724  50.1569965 102.0854813 102.3976080  49.7152376 101.3409445
 101.2669985  49.5822593 102.3389005  98.3423794  45.0942572  99.4588369
  99.1884989  45.5181986  99.6023018  98.2822431  44.4376197 100.1526933
 102.3121538  50.7171156  95.8407101 101.6830401  50.8816870  95.1383169
 101.9247200  51.1312766  96.6118065 106.1910770  51.6525594  93.1951465
 105.5061808  52.0324495  92.6448498 106.2754619  52.2620921  93.9283413
 103.4461702  49.2985553  99.7946809 103.6578597  49.9417313  99.1181190
 103.3991450  48.4647870  99.3268739 101.0487931  41.9103374  96.6983381
 100.1872410  42.2084627  96.9900118 101.0750365  42.1273773  95.7664413
  97.8649500  50.4545564  93.1057187  98.3287846  50.7333267  92.3161809
  97.6006298  49.5529009  92.9230277  94.7573581  50.0017046  96.0436950
  95.3274938  50.4304314  95.4054434  95.3481693  49.7199630  96.7421135
  96.8018386  46.5768717  89.9146752  97.5042430  47.0289760  90.3820678
  96.4699015  45.9352535  90.5426645  95.2498748  45.1680473 104.2897961
  94.6197408  45.8496754 104.5233358  95.1434836  45.0563555 103.3451099
  90.5443720  44.8352269  95.2163885  89.7542774  45.0909798  94.7403996
  91.0354968  45.6500607  95.3215926 104.5607530  52.1757508  97.9669166
 105.3824973  51.7737696  97.6851848 104.5569933  52.0725743  98.9185282
  92.4958466  45.1996848  92.1747362  91.6989629  45.3115543  92.6930858
  92.2684058  45.5383501  91.3088252  98.3264133  51.7241552 100.1229877
  98.3908566  52.1861959 100.9588048  97.6175057  51.0938917 100.2512186
  88.8281423  45.0882760  97.6478876  89.0789462  45.9729770  97.9136452
  89.3640972  44.9087361  96.8753968  98.0412151  53.3909659  89.9908857
  97.9057826  54.2361195  90.4193705  98.5821963  53.5928937  89.2274791
  93.3036433  54.0250854  92.6459535  93.4803061  54.9468818  92.4580519
  94.0993266  53.7109273  93.0753915  92.5888789  46.0715485 102.5221698
  92.4742305  45.1700743 102.8228797  91.7333307  46.3179182 102.1706515
  99.6680627  54.0133226 104.1209199  99.2244481  53.2269604 103.8030103
 100.3297841  54.2012376 103.4553090  94.4267748  55.5429027  98.6469877
  94.9775174  55.4146091  97.8746871  93.5879224  55.8423916  98.2964770
 101.7661865  54.2936026 102.1490600 101.7480341  55.1144907 101.6570869
 102.6881785  54.1690101 102.3740741  98.2234919  51.8080155 102.9914109
  98.7563256  51.0468443 102.7613417  97.6949001  51.5153807 103.7338263
  89.4590465  49.2373752  91.3396352  90.2965687  49.6470760  91.1230060
  89.6368733  48.2973194  91.3096546 101.3554897  46.9048832  87.0280185
 100.8401521  47.6753437  87.2668573 101.0832206  46.2313968  87.6513247
  98.9402008  41.7498533  92.0865424  98.0843604  41.3605383  91.9071063
  99.3528960  41.8290494  91.2265209 100.4701155  39.2844876  96.4856984
  99.9665950  39.2475011  95.6724789 100.7631762  40.1937619  96.5453640
  96.7144041  39.3683606  95.4923165  97.5797037  39.1726415  95.1329055
  96.7821550  39.1393958  96.4192522 106.3289171  49.6581187  88.9633359
 105.5518614  49.3192346  88.5188521 107.0080652  49.6633810  88.2888324
 101.1441200  44.7775924  88.8539967 100.8391336  45.0922073  89.7050110
 102.0971642  44.8557344  88.8967300  99.5887632  50.9366148  90.5032921
  99.0608994  50.2018907  90.1906158  99.0875135  51.7140824  90.2572889
 104.5680478  49.1315168  95.6199967 103.9104153  49.8214429  95.7080096
 105.3720877  49.5211600  95.9633953  94.3206360  41.5985814  92.8639532
  94.8950112  41.3760995  92.1312725  94.9077342  41.6674508  93.6168133
 103.3785937  47.4859541  93.6703909 103.8917819  48.1189533  94.1725618
 104.0287161  46.8860736  93.3047269  94.6475947  43.6290275  86.8835417
  93.8113259  43.9664961  87.2044692  94.5080716  43.4939255  85.9462554
  96.6229027  38.4727063  91.5914602  95.9693440  38.1576080  90.9671216
  96.5809502  37.8502803  92.3174424 100.6408311  57.4643865  86.4264580
  99.9670010  57.7675562  87.0349538 101.0274133  58.2672945  86.0770037
  99.8566768  44.9608996  95.9162249  98.9389329  45.1823943  95.7583937
 100.2726911  45.0355307  95.0573957 100.6401816  46.3600412  91.0464929
 101.3873635  46.8721809  90.7372051 100.9093405  46.0384465  91.9069323
  98.9128466  48.8558953  88.0291884  98.0039685  48.5717986  88.1264353
  98.9423550  49.2758031  87.1695191 104.1447733  52.4665542  91.7983051
 103.6910060  51.6256452  91.8548242 103.5141700  53.1026941  92.1357831
 103.0880653  43.3957528  93.0283719 102.3503410  42.8834914  93.3593961
 103.3407426  42.9557910  92.2166996 102.5880672  54.3042039  92.7332869
 102.8803647  54.8647096  92.0145235 103.0979293  54.5970600  93.4886029
 103.1892280  36.1733780  93.6225488 103.4951157  35.3131144  93.3351403
 103.9144885  36.7651400  93.4224482  89.4816636  46.5764467  92.0107086
  89.2841036  45.9833828  91.2858153  88.9263300  46.2716677  92.7283025
  97.4613360  46.4687573  94.1301679  97.5161970  45.5161410  94.0544156
  96.6504562  46.6247012  94.6142978  98.6104554  50.3967696  85.3679962
  98.1723983  49.6803555  84.9085600  99.3514994  50.6243811  84.8065054
  95.4005720  45.0864633  91.8892058  94.5873585  45.3858804  92.2957250
  95.8964714  44.6920322  92.6066540  97.5514298  55.0822390  93.8226323
  97.5090476  55.3083236  92.8934855  98.4676996  54.8485765  93.9712124
 100.9979931  45.5506458 100.7206952 101.3529319  45.7777931 101.5801418
 101.6452063  45.8824834 100.0984207 106.7277668  48.6724893  91.4256281
 106.5895567  48.8626489  90.4977470 106.3713887  49.4344276  91.8824332
  94.8919794  42.6582989  97.5053293  95.5319174  42.5171748  96.8076256
  94.0597325  42.3717502  97.1291895 106.7547048  50.7401420  96.4367552
 107.1883555  50.6476710  97.2850606 107.4678629  50.7158921  95.7987568
  95.6680098  51.9585419  93.6188285  96.4620697  51.4635739  93.4170860
  94.9571791  51.4303282  93.2555991 100.4874943  54.3403515  97.9700653
 100.5411965  54.9094451  98.7378369  99.6189724  54.5105400  97.6054690
  91.8948411  42.6283314  92.2826280  92.1555228  43.5428647  92.1735440
  92.7165583  42.1607756  92.4322893  93.3673336  44.0421071  99.4525104
  94.0396390  43.8338433  98.8037753  92.5403123  43.8443157  99.0130337
  99.4463043  48.5063777  99.5287585 100.3755103  48.6574936  99.3556552
  99.0254073  48.5947797  98.6736231  98.2451374  52.5314441  97.2986122
  98.1062460  52.1633225  98.1712061  97.4565971  53.0462080  97.1270080
  98.8399526  57.6323537  88.6411659  99.0151282  57.1611581  89.4557282
  98.1532314  58.2589304  88.8692920  99.7956590  51.9096044  94.6874960
  99.4606422  51.8696814  95.5832610  99.2960535  51.2440760  94.2145370
  93.7700833  47.3163674 100.2127541  93.6320631  46.5843913 100.8139080
  94.6805757  47.2272574  99.9311729 102.7315781  49.2552078  84.9612020
 102.1144952  48.5298906  84.8645073 102.2632270  50.0161438  84.6179094
  96.3983134  47.0283633  99.7011221  97.1082753  46.3876825  99.6597839
  96.3552442  47.2796528 100.6237402 104.3869913  53.9650986 102.6217800
 104.3282459  53.2810207 101.9548383 104.7889431  54.7069976 102.1698426
  95.1112068  44.0148851 101.5206861  94.5749425  43.5639589 102.1728457
  94.5228777  44.1494760 100.7777325  93.4060612  60.7812900  95.4151519
  93.6457210  61.4131424  96.0930538  92.5629808  60.4300940  95.7016878
  94.5214327  43.4737502  84.0833324  93.6443793  43.3526303  83.7195571
  94.9972080  42.6823581  83.8312213 104.3887320  51.9290570 100.8531780
 103.5014099  51.5916492 100.9758179 104.9585871  51.1973602 101.0900545
  86.0416467  48.2614662  94.1774831  86.7287507  47.9476392  93.5895847
  85.8864596  49.1656027  93.9042083  90.8451189  43.1504859  98.6059855
  90.7609378  42.5430528  97.8710265  90.0233896  43.6413877  98.6069351
  97.9188473  56.5892023  97.8193023  97.8458645  57.3946994  98.3312328
  97.4765867  56.7883989  96.9941045  97.7078253  55.8263793  91.3295845
  96.9245775  56.3685473  91.4234069  98.4070998  56.3437772  91.7290086
 101.0174903  41.6358422  93.9730050 101.5143603  40.8828385  93.6531120
 100.2461885  41.6722739  93.4073259 108.8704661  47.3398788  95.6148342
 108.8594537  48.2223503  95.2442275 108.0022040  46.9870339  95.4202879
 100.3787157  56.4878857  99.9751182 101.0915129  57.1226322  99.9027083
  99.8877186  56.5842723  99.1591184 102.1004684  50.3930109  91.5468473
 101.1660963  50.5131572  91.3773178 102.2781352  49.4902576  91.2828483
  97.6009872  43.7775805  93.7001735  97.2307660  43.2246846  94.3882640
  98.0968964  43.1733939  93.1476735 105.4877235  46.2347429  92.0818508
 105.9537687  47.0675420  92.0078810 105.9384736  45.7692410  92.7863766
  95.4299071  54.2373300 100.7956753  96.1308530  54.8709783 100.9486147
  94.9594186  54.5788032 100.0352392 103.5553466  52.5791250  89.0804660
 103.8313310  52.4647845  89.9898534 102.6857965  52.1808735  89.0416833
 103.2300357  46.7917908  98.6209303 102.5771807  47.0393815  97.9661756
 103.6080736  45.9782046  98.2871780 100.1907530  56.8277601  92.7237473
 100.3729925  56.0099257  93.1865226 101.0140516  57.0445293  92.2862363
 100.5249696  55.7545786  89.9852522 101.0537462  55.2438241  89.3722684
 100.7877915  55.4388316  90.8498055  91.0266789  53.7709655  97.7287855
  91.6120225  53.0253343  97.8615760  90.8291627  54.0813612  98.6124519
  93.8805444  56.8060903  92.7450298  93.2115819  57.2907030  92.2614338
  93.7418314  57.0530123  93.6593676  85.6184443  46.3415255  96.4492298
  85.6568543  45.8078846  97.2429417  85.1124736  45.8150461  95.8303276
  98.0210712  58.8404646  99.3432956  98.5729020  59.0036268 100.1082041
  98.3616906  59.4309084  98.6712981  92.9975206  41.1879796  99.9454841
  93.0616532  42.0494627  99.5332238  92.9342326  40.5753798  99.2127199
  92.4727478  43.2602928 103.5927875  93.0999517  42.8780006 104.2065399
  91.6155397  43.0417130 103.9583568 101.1579100  56.7886622  96.3296638
 101.0330239  55.9876362  95.8207584 101.8158191  57.2832815  95.8410608
  92.7787268  43.1435354  95.5073778  92.0573854  43.7571322  95.3681252
  93.5680524  43.6793119  95.4290424 103.2214008  54.5895642  97.9576188
 102.2744344  54.4700993  97.8854515 103.5696781  53.7018140  98.0402450
  95.5813581  40.4789781 101.7814430  96.1047983  40.7252077 102.5440740
  95.3625915  41.3109815 101.3617568 100.2260441  54.3848358  94.1580541
 100.0785404  53.4565065  94.3388111 101.0513935  54.4068449  93.6737616
  94.0922686  43.0366425  90.0161033  94.4318758  43.5652346  89.2939641
  94.5394806  43.3746831  90.7919599 103.8294563  55.2076917  95.2445413
 104.7541111  55.0019778  95.1069864 103.6609867  54.9593318  96.1534755
  96.7866126  41.4203476  99.4664101  96.4462947  40.6211289  99.8684781
  96.0805133  41.7205187  98.8940934  97.4382598  38.5052788  97.9191424
  98.2608668  38.0313266  97.7970314  97.6820662  39.2843272  98.4190110
  96.0790833  41.5341047  88.2154325  96.7999195  41.9122299  87.7118042
  95.4556137  42.2529923  88.3189303 100.2221956  42.2386196  89.1512658
 100.4385570  43.1210833  88.8501486  99.7416023  41.8472409  88.4218300
  94.9621177  45.1971909  95.7283402  94.8165758  45.5112212  96.6207684
  94.4846381  45.8156809  95.1754301  96.8217560  42.1874457  95.7764292
  96.8079129  41.2915550  95.4396590  97.5389988  42.1945121  96.4102578
  98.6743691  42.6211797  97.8217419  98.4161468  43.5428868  97.8201750
  98.1428731  42.2242232  98.5117883 103.6189879  55.7262584  90.6007505
 103.7926757  55.1609007  89.8481357 104.1118771  56.5263479  90.4186995
  89.4366839  47.7377253  98.6671064  88.8920307  48.5137061  98.7991338
  90.3146189  48.0848058  98.5090185  96.2254456  41.0688837  91.0451862
  96.3470367  40.1405483  91.2442750  95.9356498  41.0827523  90.1330177
  99.0945646  38.7543748  94.1818582  99.1167343  38.8183081  93.2270561
  99.5113705  37.9148256  94.3759088 109.4729271  48.4899007  92.2197804
 109.9160417  47.7406332  91.8216928 108.5955781  48.4809143  91.8371536
 104.6065052  55.0429349  87.7004403 105.3015957  55.6636041  87.9191718
 104.9488202  54.1924700  87.9756781  90.2232861  46.8647150 101.5601220
  89.4814597  47.0129785 102.1465851  89.9025605  47.1255415 100.6967970
 106.5056475  52.4929054  89.2291734 107.0307799  52.8316327  88.5041054
 106.4178828  51.5576069  89.0454868  98.1676524  56.4063128 101.3581610
  98.4763650  56.1612274 102.2304310  98.9652006  56.6109766 100.8700481
  98.1897136  58.5601037  93.5886987  97.7502126  58.0677416  94.2819844
  98.9405253  58.0174005  93.3479062  90.6689475  54.7512578  93.5911615
  91.4947495  54.4516350  93.2110259  90.3183527  53.9820201  94.0401404
  95.6371008  54.1039046  95.6609289  95.0151017  53.4409751  95.3611517
  96.3075875  54.1300178  94.9782936  88.8698080  52.6698905  94.5500549
  88.0329988  52.2421079  94.3684550  88.8421725  52.8631348  95.4871340
  97.9394824  43.3352207 102.0088153  97.0698133  43.6285773 101.7370742
  98.1754304  43.9192652 102.7295417 109.0162135  49.9604245  94.6120252
 109.8509027  50.3994049  94.7757812 109.1521264  49.4842899  93.7928498
  92.9537148  48.6808147  90.1428818  92.7083190  47.7770477  90.3409028
  93.1233062  48.6825298  89.2008296 100.8946452  35.9732106  95.0454470
 101.1748206  35.3055295  95.6714897 101.6797059  36.1661202  94.5329134
  98.6979920  55.1491100  86.6079497  98.1253887  55.7681287  86.1549968
  99.2712714  55.6990462  87.1419419 101.9177180  55.4328250  87.7388079
 102.8507853  55.3673812  87.9420954 101.8300393  56.2684517  87.2802612
 104.5465197  54.7494121  84.6992026 104.4678828  54.4153984  85.5927784
 105.3674864  55.2415889  84.6983499  99.0826719  46.4851913  83.9495549
 100.0285824  46.3558121  84.0183967  98.7040964  45.7466575  84.4264977
  98.9665411  50.5369659 105.4096206  99.8868421  50.7148258 105.6036253
  98.9314994  49.5925704 105.2575905  97.2669636  44.4101889  83.8850434
  96.3601091  44.1135002  83.9613148  97.5445617  44.1131707  83.0184721
  88.1847576  45.7308253  94.3349481  87.8650361  44.8773561  94.0423855
  87.6381005  45.9456831  95.0907448  91.9627484  48.4470694  98.0518987
  92.1813494  49.3787802  98.0707021  92.3753258  48.0878668  98.8373791
  98.8831702  38.9538779  90.0394676  98.0732430  38.6085864  90.4149922
  99.5716119  38.6446323  90.6282287 100.8122250  38.0316826  91.6618972
 101.3653289  38.4512279  92.3208995 101.0492336  37.1052574  91.7041928
  96.0368421  41.2688825  84.0262414  96.8987585  41.5943723  84.2858231
  96.2218765  40.4820320  83.5135479  88.0535836  49.3511164  96.3042602
  87.3599308  48.9365117  95.7912557  88.8008827  49.3931701  95.7076021
 104.1901057  40.1417351  91.1697637 103.6099726  40.8002155  90.7875689
 103.9236990  39.3194696  90.7585054 102.6404623  39.5422409  93.3718957
 103.1404402  39.6538943  92.5633276 103.2840231  39.2383462  94.0119765
  96.6986619  47.4501038 106.2586798  96.2153701  48.2501398 106.4650687
  96.7847558  47.4608983 105.3054242  89.9672579  49.2829418  94.1808617
  89.9443267  49.3817105  93.2290500  90.2773215  50.1294569  94.5025783
  92.6259957  51.3405573  98.2955232  93.5803210  51.3089515  98.2285163
  92.4272480  50.8796197  99.1105458  93.2159339  49.9106689 100.8626029
  94.0352228  50.4050768 100.8860867  93.4896147  48.9938657 100.8343597
 102.9725935  42.3017441  90.2253985 102.0851790  42.5867092  90.0074180
 103.3879924  42.1411205  89.3781262 106.3240471  42.3263962  93.9408324
 107.1000861  42.8160415  94.2132941 105.5988605  42.7522017  94.3980194
  90.9810186  56.8825193  95.3125429  90.8464654  56.1225593  94.7463428
  90.5642248  57.6066092  94.8454218 102.1169149  52.0662116  84.3202005
 102.8204999  52.2712119  84.9359660 101.3931797  52.6338878  84.5851088
 102.9466959  47.8171977  90.4404275 102.8902160  48.2740529  89.6011907
 103.4995301  47.0562662  90.2627118 106.7571765  43.6061709  91.2654394
 106.5008699  43.2058345  92.0962602 106.1324633  44.3205503  91.1404534
  94.1379311  57.7794510  95.5243872  94.0211696  58.7239942  95.4222562
  93.3171758  57.4768071  95.9129671 104.0255846  52.5044645  86.3700465
 104.8601450  52.0725844  86.1877940 103.8640189  52.3326659  87.2977359
 103.6801738  49.0076759  87.7356804 103.6250542  48.8421030  86.7945248
 103.0547793  49.7152792  87.8918994  88.4694253  44.2444823 101.5618226
  89.1153117  43.7343777 102.0505452  88.2611404  44.9813505 102.1361652
  96.9897864  38.5084868  87.3142123  96.9776533  39.4526708  87.4710393
  97.8821286  38.3255013  87.0201584  95.1633826  58.4322771  98.7399801
  96.0661072  58.4646382  99.0566296  94.9371196  57.5023222  98.7546136
  96.9187428  57.1853758  95.4009879  95.9683059  57.1855620  95.2874251
  97.2219914  56.4386493  94.8845914 100.8049983  35.1027644  91.5688059
 100.0382379  34.5486131  91.7144742 101.2160688  35.1749513  92.4302211
 105.3216643  64.8277201  92.3914057 104.7581508  64.7367138  91.6230345
 105.2069038  64.0077105  92.8716550 102.8681075  66.3228393  95.2298278
 103.6602367  65.9819217  94.8144577 103.1077725  66.4323368  96.1500431
 104.8271829  65.5837306  88.1015656 105.6002705  65.0366293  87.9628532
 105.1797228  66.4481555  88.3130118 107.1638107  61.7429972  85.7334106
 107.4163627  61.2211493  84.9717569 106.2262666  61.5796117  85.8360790
 106.8834396  63.6458078  87.9358481 106.7670654  62.9702981  88.6039566
 106.9936655  63.1590452  87.1190634 109.2265936  63.1068225  91.6405171
 108.8624144  62.5798846  92.3518092 110.0833052  62.7166694  91.4671656
 108.8671423  58.1358125  86.6366519 109.0345826  59.0038361  87.0036990
 108.6768592  58.2985406  85.7127808 105.0759238  63.0488900  94.3369054
 104.1509735  62.9165115  94.5446746 105.3243651  63.8283120  94.8338996
 108.8460644  60.5915782  87.6213186 108.7260269  61.0372833  88.4598666
 108.1513233  60.9401100  87.0626724 102.4368049  62.6922174  95.1712843
 102.5660430  62.9456653  96.0852255 101.7565500  63.2849882  94.8517498
 108.7043255  65.7837482  93.1057187 109.1681600  66.0625185  92.3161809
 108.4400053  64.8820926  92.9230277 107.6412141  61.9060634  89.9146752
 108.3436184  62.3581678  90.3820678 107.3092769  61.2644453  90.5426645
 101.3837475  60.1644187  95.2163885 100.5936529  60.4201715  94.7403996
 101.8748722  60.9792525  95.3215926 103.3352220  60.5288766  92.1747362
 102.5383383  60.6407460  92.6930858 103.1077812  60.8675418  91.3088252
  99.6675178  60.4174677  97.6478876  99.9183216  61.3021687  97.9136452
 100.2034726  60.2379279  96.8753968 108.8805905  68.7201577  89.9908857
 108.7451580  69.5653113  90.4193705 109.4215718  68.9220855  89.2274791
 102.3335303  66.2377015  90.5636782 102.8459823  67.0320265  90.7142347
 102.9858016  65.5403305  90.4970383 104.1430187  69.3542771  92.6459535
 104.3196816  70.2760736  92.4580519 104.9387021  69.0401190  93.0753915
 100.2984219  64.5665669  91.3396352 101.1359441  64.9762678  91.1230060
 100.4762487  63.6265111  91.3096546 109.7795763  57.0790451  92.0865424
 108.9237359  56.6897301  91.9071063 110.1922714  57.1582411  91.2265209
 107.5537795  54.6975524  95.4923165 108.4190792  54.5018332  95.1329055
 107.6215304  54.4685875  96.4192522 110.4281387  66.2658065  90.5032921
 109.9002748  65.5310825  90.1906158 109.9268889  67.0432742  90.2572889
 105.1600114  56.9277732  92.8639532 105.7343866  56.7052913  92.1312725
 105.7471097  56.9966426  93.6168133 105.4869701  58.9582193  86.8835417
 104.6507014  59.2956879  87.2044692 105.3474471  58.8231172  85.9462554
 107.4622782  53.8018980  91.5914602 106.8087194  53.4867998  90.9671216
 107.4203256  53.1794721  92.3174424 108.5733987  64.0838276  83.5067894
 107.6661049  63.8527529  83.7059043 109.0705019  63.2875895  83.6941875
 109.7522220  64.1850870  88.0291884 108.8433439  63.9009903  88.1264353
 109.7817304  64.6049949  87.1695191 100.3210391  61.9056385  92.0107086
 100.1234790  61.3125745  91.2858153  99.7657055  61.6008595  92.7283025
 108.3007114  61.7979491  94.1301679 108.3555724  60.8453327  94.0544156
 107.4898316  61.9538930  94.6142978 109.4498308  65.7259614  85.3679962
 109.0117738  65.0095473  84.9085600 110.1908749  65.9535729  84.8065054
 106.2399474  60.4156551  91.8892058 105.4267340  60.7150721  92.2957250
 106.7358468  60.0212240  92.6066540 105.7313549  57.9874906  97.5053293
 106.3712928  57.8463665  96.8076256 104.8991080  57.7009420  97.1291895
 106.5073853  67.2877337  93.6188285 107.3014451  66.7927657  93.4170860
 105.7965545  66.7595200  93.2555991 102.8156616  61.4320418  89.6948038
 101.8854204  61.3704874  89.9118000 102.9114088  60.9096371  88.8984679
 102.7342165  57.9575231  92.2826280 102.9948983  58.8720565  92.1735440
 103.5559338  57.4899674  92.4322893 104.2067091  59.3712988  99.4525104
 104.8790144  59.1630351  98.8037753 103.3796877  59.1735074  99.0130337
 109.6793281  72.9615455  88.6411659 109.8545037  72.4903498  89.4557282
 108.9926069  73.5881221  88.8692920 105.3608082  58.8029420  84.0833324
 104.4837548  58.6818221  83.7195571 105.8365835  58.0115498  83.8312213
  96.8810222  63.5906580  94.1774831  97.5681262  63.2768310  93.5895847
  96.7258350  64.4947944  93.9042083 101.6844944  58.4796776  98.6059855
 101.6003133  57.8722446  97.8710265 100.8627650  58.9705795  98.6069351
 108.4403626  59.1067723  93.7001735 108.0701414  58.5538763  94.3882640
 108.9362719  58.5025856  93.1476735  96.4578198  61.6707173  96.4492298
  96.4962297  61.1370764  97.2429417  95.9518491  61.1442379  95.8303276
 103.8368960  56.5171714  99.9454841 103.9010287  57.3786545  99.5332238
 103.7736080  55.9045715  99.2127199 100.0886775  60.3971275  89.5246230
 100.3840216  59.4881954  89.4713284  99.1874811  60.3759015  89.2027232
 103.6181022  58.4727272  95.5073778 102.8967608  59.0863240  95.3681252
 104.4074278  59.0085037  95.4290424 101.8174617  58.0785373  89.6485555
 101.4887323  57.1982752  89.4660661 102.1713988  58.0233042  90.5361944
 104.9316440  58.3658343  90.0161033 105.2712513  58.8944264  89.2939641
 105.3788561  58.7038749  90.7919599 107.6259881  56.7495393  99.4664101
 107.2856701  55.9503207  99.8684781 106.9198887  57.0497104  98.8940934
 108.2776353  53.8344706  97.9191424 109.1002422  53.3605184  97.7970314
 108.5214416  54.6135190  98.4190110 106.9184587  56.8632964  88.2154325
 107.6392950  57.2414217  87.7118042 106.2949891  57.5821841  88.3189303
 105.8014932  60.5263827  95.7283402 105.6559512  60.8404130  96.6207684
 105.3240135  61.1448727  95.1754301 107.6611314  57.5166375  95.7764292
 107.6472883  56.6207468  95.4396590 108.3783743  57.5237038  96.4102578
 109.5137445  57.9503715  97.8217419 109.2555223  58.8720785  97.8201750
 108.9822486  57.5534149  98.5117883 100.2760594  63.0669171  98.6671064
  99.7314062  63.8428979  98.7991338 101.1539944  63.4139975  98.5090185
 107.0648210  56.3980755  91.0451862 107.1864122  55.4697401  91.2442750
 106.7750253  56.4119441  90.1330177 109.9339401  54.0835665  94.1818582
 109.9561098  54.1474998  93.2270561 110.3507460  53.2440174  94.3759088
 101.5083229  70.0804496  93.5911615 102.3341249  69.7808268  93.2110259
 101.1577281  69.3112118  94.0401404  99.7091834  67.9990822  94.5500549
  98.8723743  67.5712997  94.3684550  99.6815480  68.1923266  95.4871340
 106.0378269  67.9834887  89.1367749 106.1866390  68.6670352  88.4834422
 106.8444713  67.9639978  89.6517205 103.7930902  64.0100065  90.1428818
 103.5476944  63.1062395  90.3409028 103.9626817  64.0117216  89.2008296
 103.0626550  59.7428423  87.6414980 102.3695795  59.8172778  86.9855016
 102.8178302  58.9788766  88.1636496 109.5373675  70.4783018  86.6079497
 108.9647642  71.0973205  86.1549968 110.1106469  71.0282380  87.1419419
 108.1063391  59.7393807  83.8850434 107.1994846  59.4426920  83.9613148
 108.3839372  59.4423625  83.0184721  99.0241331  61.0600170  94.3349481
  98.7044115  60.2065479  94.0423855  98.4774759  61.2748749  95.0907448
 109.7225456  54.2830697  90.0394676 108.9126185  53.9377782  90.4149922
 110.4109873  53.9738241  90.6282287 106.8762175  56.5980742  84.0262414
 107.7381339  56.9235641  84.2858231 107.0612519  55.8112238  83.5135479
  98.8929591  64.6803082  96.3042602  98.1993062  64.2657035  95.7912557
  99.6402582  64.7223618  95.7076021 100.8066333  64.6121336  94.1808617
 100.7837022  64.7109023  93.2290500 101.1166970  65.4586487  94.5025783
 107.8291618  53.8376785  87.3142123 107.8170288  54.7818625  87.4710393
 108.7215040  53.6546931  87.0201584  74.0886274   4.3805793  77.9948624
  74.0110304   5.3313619  78.0737104  73.4847918   4.0351666  78.6523550
  71.7273104   7.1291187  82.1396826  71.9669702   7.7609712  82.8175844
  70.8842300   6.7779228  82.4262185  72.2017936   3.1539190  79.4695604
  71.5328311   3.6385317  78.9859644  72.0630806   3.4008410  80.3838983
  76.3423205   5.1882933  86.0678263  76.8941513   5.3514555  86.8327348
  76.6829398   5.7787371  85.3958288  69.3022678   3.2303480  82.0370736
  69.1677146   2.4703881  81.4708734  68.8854740   3.9544380  81.5699525
  72.4591804   4.1272797  82.2489179  72.3424188   5.0718229  82.1467869
  71.6384250   3.8246358  82.6374978  73.4846318   4.7801059  85.4645107
  74.3873565   4.8124669  85.7811602  73.2583688   3.8501510  85.4791443
  87.7842320   9.3220012  83.1262473  87.4460831   9.2061076  82.2383008
  88.6532088   8.9211177  83.1063479  83.6429135  11.1755488  79.1159364
  83.0794000  11.0845425  78.3475652  83.5281530  10.3555393  79.5961856
  88.2662103  10.4754863  89.0848678  88.2550743  10.0807662  88.2129182
  88.4282742   9.7420936  89.6782450  81.1893567  12.6706680  81.9543584
  81.9814859  12.3297504  81.5389884  81.4290217  12.7801655  82.8745738
  89.2228694  14.8426456  74.4273829  88.5716674  15.4280536  74.0407843
  90.0173057  15.3732651  74.4868866  83.1484321  11.9315593  74.8260963
  83.9215197  11.3844580  74.6873839  83.5009720  12.7959842  75.0375424
  84.9869364  13.2591975  88.0327862  84.6959230  14.1637606  87.9174529
  85.6226348  13.3008503  88.7471932  85.9125571  10.6368824  84.6229222
  86.5089143  10.4124846  83.9086185  85.9700542   9.8953569  85.2254670
  90.7003959  12.5316888  74.9642813  90.0649792  12.6051514  75.6763718
  90.3701366  13.1210487  74.2861892  85.2046888   9.9936365  74.6603788
  85.0883146   9.3181268  75.3284872  85.3149148   9.5068739  73.8435941
  87.5478429   9.4546512  78.3650477  87.1836636   8.9277133  79.0763399
  88.4045545   9.0644981  78.1916963  89.9459249  12.9453391  85.0277656
  89.6459972  13.8478430  84.9193463  89.6010308  12.6785574  85.8798809
  83.3971730   9.3967188  81.0614361  82.4722227   9.2643402  81.2692052
  83.6456144  10.1761407  81.5584303  80.7580541   9.0400461  81.8958150
  80.8872923   9.2934940  82.8097561  80.0777993   9.6328169  81.5762805
  84.9280029  19.7097711  77.9948624  84.8504058  20.6605536  78.0737104
  84.3241672  19.3643584  78.6523550  85.6743631   9.6911030  90.2127958
  86.4158315  10.2296074  89.9362781  84.9680616  10.3177319  90.3699509
  91.1498970  11.8340170  88.8100119  91.5582326  11.3922581  88.0654752
  90.4276232  11.2592798  89.0634312  91.4727785  12.3941361  82.5652408
  90.8436647  12.5587075  81.8628476  91.0853447  12.8082971  83.3363372
  95.3517017  13.3295799  79.9196772  94.6668055  13.7094700  79.3693805
  95.4360866  13.9391126  80.6528720  87.0255747  12.1315769  79.8302493
  87.4894092  12.4103472  79.0407116  86.7612545  11.2299214  79.6475584
  83.9179828  11.6787251  82.7682256  84.4881185  12.1074519  82.1299741
  84.5087940  11.3969835  83.4666442  79.7049967   6.5122474  81.9409192
  78.9149021   6.7680003  81.4649302  80.1961214   7.3270812  82.0461232
  93.7213776  13.8527713  84.6914473  94.5431220  13.4507901  84.4097154
  93.7176179  13.7495948  85.6430588  81.6564712   6.8767053  78.8992669
  80.8595876   6.9885748  79.4176164  81.4290305   7.2153706  78.0333559
  87.4870380  13.4011757  86.8475183  87.5514812  13.8632164  87.6833355
  86.7781304  12.7709122  86.9757493  77.9887670   6.7652965  84.3724183
  78.2395708   7.6499975  84.6381759  78.5247218   6.5857566  83.5999274
  87.2018398  15.0679864  76.7154164  87.0664072  15.9131400  77.1439011
  87.7428210  15.2699142  75.9520097  80.6547795  12.5855302  77.2882089
  81.1672316  13.3798552  77.4387653  81.3070508  11.8881593  77.2215690
  82.4642680  15.7021058  79.3704842  82.6409308  16.6239023  79.1825826
  83.2599513  15.3879478  79.7999222  81.7495036   7.7485690  89.2467005
  81.6348551   6.8470948  89.5474104  80.8939554   7.9949387  88.8951822
  88.8286874  15.6903431  90.8454506  88.3850728  14.9039809  90.5275410
  89.4904088  15.8782581  90.1798396  83.5873995  17.2199232  85.3715184
  84.1381420  17.0916296  84.5992178  82.7485471  17.5194121  85.0210077
  90.9268112  15.9706231  88.8735907  90.9086587  16.7915112  88.3816176
  91.8488032  15.8460306  89.0986048  87.3841166  13.4850360  89.7159415
  87.9169503  12.7238648  89.4858723  86.8555247  13.1924012  90.4583570
  78.6196712  10.9143956  78.0641659  79.4571934  11.3240965  77.8475367
  78.7974979   9.9743399  78.0341853  88.7493879  12.6136353  77.2278227
  88.2215240  11.8789112  76.9151465  88.2481382  13.3911029  76.9818196
  93.7286725  10.8085373  82.3445274  93.0710399  11.4984634  82.4325402
  94.5327124  11.1981805  82.6879260  86.8946479  10.4316563  70.2313200
  85.9873541  10.2005816  70.4304349  87.3917511   9.6354182  70.4187182
  89.8014558  19.1414070  73.1509886  89.1276257  19.4445767  73.7594844
  90.1880380  19.9443150  72.8015344  88.0734713  10.5329158  74.7537190
  87.1645932  10.2488190  74.8509660  88.1029796  10.9528236  73.8940497
  93.3053980  14.1435747  78.5228358  92.8516307  13.3026657  78.5793548
  92.6747947  14.7797146  78.8603138  91.7486919  15.9812244  79.4578176
  92.0409894  16.5417301  78.7390542  92.2585540  16.2740805  80.2131335
  78.6422883   8.2534672  78.7352393  78.4447283   7.6604032  78.0103459
  78.0869547   7.9486882  79.4528331  87.7710800  12.0737901  72.0925269
  87.3330230  11.3573760  71.6330906  88.5121241  12.3014016  71.5310360
  86.7120544  16.7592595  80.5471629  86.6696723  16.9853441  79.6180161
  87.6283243  16.5255970  80.6957430  95.9153295  12.4171625  83.1612859
  96.3489801  12.3246914  84.0095913  96.6284875  12.3929126  82.5232875
  84.8286345  13.6355624  80.3433592  85.6226944  13.1405944  80.1416167
  84.1178038  13.1073487  79.9801298  89.6481190  16.0173719  84.6945960
  89.7018212  16.5864656  85.4623676  88.7795971  16.1875605  84.3299997
  81.1369109   7.7798706  76.4193345  80.2066697   7.7183161  76.6363307
  81.2326581   7.2574658  75.6229986  88.6069289  10.1833982  86.2532891
  89.5361349  10.3345141  86.0801859  88.1860319  10.2718002  85.3981538
  87.4057621  14.2084646  84.0231429  87.2668707  13.8403430  84.8957367
  86.6172217  14.7232285  83.8515387  88.0005773  19.3093742  75.3656966
  88.1757529  18.8381786  76.1802588  87.3138561  19.9359509  75.5938226
  88.9562836  13.5866249  81.4120267  88.6212669  13.5467019  82.3077917
  88.4566782  12.9210965  80.9390677  82.9307080   8.9933879  86.9372848
  82.7926878   8.2614117  87.5384387  83.8412004   8.9042779  86.6557036
  91.8922028  10.9322283  71.6857327  91.2751199  10.2069111  71.5890379
  91.4238516  11.6931643  71.3424401  85.5589381   8.7053838  86.4256528
  86.2688999   8.0647030  86.3843146  85.5158689   8.9566733  87.3482708
  93.5476160  15.6421191  89.3463107  93.4888706  14.9580411  88.6793690
  93.9495678  16.3840181  88.8943733  82.5666858  22.4583105  82.1396826
  82.8063457  23.0901629  82.8175844  81.7236055  22.1071145  82.4262185
  93.5493567  13.6060775  87.5777087  92.6620346  13.2686697  87.7003485
  94.1192118  12.8743806  87.8145852  75.2022714   9.9384867  80.9020138
  75.8893754   9.6246597  80.3141153  75.0470843  10.8426232  80.6287389
  87.0794720  18.2662228  84.5438330  87.0064892  19.0717199  85.0557634
  86.6372113  18.4654193  83.7186351  86.8684500  17.5033998  78.0541151
  86.0852022  18.0455678  78.1479376  87.5677245  18.0207977  78.4535392
  89.5393404  18.1649062  86.6996488  90.2521376  18.7996526  86.6272390
  89.0483432  18.2612928  85.8836490  91.2610931  12.0700314  78.2713780
  90.3267209  12.1901777  78.1018484  91.4387599  11.1672781  78.0073790
  84.5905317  15.9143505  87.5202059  85.2914777  16.5479988  87.6731453
  84.1200432  16.2558237  86.7597699  92.7159713  14.2561455  75.8049966
  92.9919557  14.1418049  76.7143840  91.8464212  13.8578940  75.7662139
  89.3513777  18.5047806  79.4482780  89.5336172  17.6869462  79.9110532
  90.1746763  18.7215498  79.0107670  89.6855943  17.4315991  76.7097828
  90.2143709  16.9208445  76.0967990  89.9484162  17.1158521  77.5743361
  80.1873035  15.4479860  84.4533162  80.7726472  14.7023548  84.5861066
  79.9897874  15.7583817  85.3369826  83.0411691  18.4831108  79.4695604
  82.3722066  18.9677235  78.9859644  82.9024560  18.7300328  80.3838983
  74.7790690   8.0185460  83.1737605  74.8174790   7.4849051  83.9674723
  74.2730983   7.4920666  82.5548582  87.1816959  20.5174851  86.0678263
  87.7335267  20.6806473  86.8327348  87.5223153  21.1079289  85.3958288
  92.0327834  15.3436109  91.9226917  92.5767737  15.9566067  91.4281872
  91.4514678  15.9015687  92.4393930  78.4099268   6.7449563  76.2491536
  78.7052709   5.8360241  76.1958590  77.5087303   6.7237302  75.9272539
  90.3185346  18.4656827  83.0541945  90.1936486  17.6646566  82.5452890
  90.9764438  18.9603020  82.5655915  92.3820255  16.2665847  84.6821495
  91.4350590  16.1471198  84.6099822  92.7303028  15.3788345  84.7647756
  89.3866688  16.0618563  80.8825847  89.2391651  15.1335270  81.0633417
  90.2120182  16.0838654  80.3982922  92.9900810  16.8847122  81.9690720
  93.9147357  16.6789983  81.8315171  92.8216113  16.6363523  82.8780061
  92.7796126  17.4032789  77.3252811  92.9533004  16.8379212  76.5726664
  93.2725017  18.2033684  77.1432301  78.5973086   9.4147458  85.3916370
  78.0526554  10.1907266  85.5236645  79.4752436   9.7618263  85.2335492
  93.7671299  16.7199553  74.4249710  94.4622203  17.3406246  74.6437024
  94.1094449  15.8694905  74.7002088  79.3839108   8.5417354  88.2846527
  78.6420844   8.6899990  88.8711157  79.0631852   8.8025620  87.4213276
  95.6662722  14.1699259  75.9537040  96.1914046  14.5086532  75.2286360
  95.5785074  13.2346274  75.7700175  87.3282770  18.0833333  88.0826917
  87.6369897  17.8382479  88.9549617  88.1258253  18.2879971  87.5945787
  87.3503383  20.2371242  80.3132294  86.9108373  19.7447621  81.0065150
  88.1011500  19.6944210  80.0724369  79.8295722  16.4282783  80.3156922
  80.6553741  16.1286555  79.9355565  79.4789774  15.6590406  80.7646710
  84.7977255  15.7809251  82.3854595  84.1757264  15.1179956  82.0856823
  85.4682122  15.8070383  81.7028243  78.0304327  14.3469110  81.2745855
  77.1936235  13.9191284  81.0929857  78.0027972  14.5401553  82.2116646
  84.3590762  14.3313175  75.8613056  84.5078882  15.0148639  75.2079729
  85.1657205  14.3118265  76.3762512  82.1143395  10.3578352  76.8674125
  81.8689437   9.4540682  77.0654335  82.2839309  10.3595503  75.9253603
  87.8586167  16.8261305  73.3324803  87.2860134  17.4451492  72.8795275
  88.4318961  17.3760667  73.8664725  91.0783427  17.1098455  74.4633386
  92.0114100  17.0444017  74.6666261  90.9906640  17.9454722  74.0047918
  93.7071444  16.4264326  71.4237333  93.6285075  16.0924189  72.3173091
  94.5281110  16.9186094  71.4228805  88.1271658  12.2139864  92.1341513
  89.0474668  12.3918463  92.3281559  88.0921241  11.2695909  91.9821212
  77.3453823   7.4078458  81.0594787  77.0256608   6.5543766  80.7669161
  76.7987251   7.6227036  81.8152755  81.1233731  10.1240899  84.7764294
  81.3419740  11.0558007  84.7952328  81.5359505   9.7648873  85.5619098
  77.2142083  11.0281369  83.0287909  76.5205555  10.6135322  82.5157863
  77.9615074  11.0701906  82.4321328  85.8592866   9.1271243  92.9832104
  85.3759948   9.9271603  93.1895993  85.9453805   9.1379188  92.0299548
  79.1278826  10.9599623  80.9053924  79.1049514  11.0587310  79.9535807
  79.4379462  11.8064774  81.2271090  81.7866204  13.0175778  85.0200538
  82.7409457  12.9859720  84.9530470  81.5878727  12.5566402  85.8350764
  82.3765586  11.5876894  87.5871336  83.1958475  12.0820973  87.6106173
  82.6502393  10.6708862  87.5588903  80.1416432  18.5595398  82.0370736
  80.0070900  17.7995798  81.4708734  79.7248495  19.2836297  81.5699525
  91.2775395  13.7432321  71.0447311  91.9811245  13.9482324  71.6604967
  90.5538044  14.3109083  71.3096395  83.2985558  19.4564715  82.2489179
  83.1817942  20.4010147  82.1467869  82.4778005  19.1538276  82.6374978
  93.1862093  14.1814850  73.0945771  94.0207697  13.7496049  72.9123246
  93.0246436  14.0096864  74.0222666  92.8407985  10.6846964  74.4602111
  92.7856789  10.5191235  73.5190555  92.2154040  11.3922996  74.6164300
  77.6300500   5.9215028  88.2863533  78.2759364   5.4113982  88.7750758
  77.4217651   6.6583710  88.8606958  84.3240072  20.1092976  85.4645107
  85.2267319  20.1416587  85.7811602  84.0977442  19.1793427  85.4791443
  86.0793674  18.8623963  82.1255186  85.1289305  18.8625825  82.0119558
  86.3826161  18.1156698  81.6091220 101.8146368  24.6984501  83.1900948
 102.4524778  24.5791249  82.4864288 101.6967211  25.6465345  83.2488900
  98.6236074  24.6511929  83.1262473  98.2854586  24.5352994  82.2383008
  99.4925842  24.2503095  83.1063479  94.4822890  26.5047406  79.1159364
  93.9187755  26.4137343  78.3475652  94.3675285  25.6847310  79.5961856
  99.1055857  25.8046781  89.0848678  99.0944498  25.4099579  88.2129182
  99.2676497  25.0712854  89.6782450  92.0287322  27.9998597  81.9543584
  92.8208614  27.6589422  81.5389884  92.2683972  28.1093573  82.8745738
 100.0622449  30.1718374  74.4273829  99.4110428  30.7572454  74.0407843
 100.8566811  30.7024568  74.4868866  93.9878076  27.2607511  74.8260963
  94.7608952  26.7136498  74.6873839  94.3403475  28.1251760  75.0375424
  95.8263118  28.5883893  88.0327862  95.5352984  29.4929524  87.9174529
  96.4620103  28.6300421  88.7471932  96.7519325  25.9660742  84.6229222
  97.3482897  25.7416764  83.9086185  96.8094297  25.2245487  85.2254670
  96.3244354  23.4200177  72.4579413  96.5769874  22.8981698  71.6962876
  95.3868913  23.2566322  72.5606097 101.3687636  22.4235955  80.2654156
 102.1550726  22.0055378  79.9144573 101.6326341  23.3282047  80.4335805
 101.5397714  27.8608806  74.9642813 100.9043547  27.9343432  75.6763718
 101.2095120  28.4502404  74.2861892 106.7696063  22.3611188  81.1687135
 107.5021235  21.7910405  81.4024964 106.0135419  21.9732789  81.6093640
  96.0440642  25.3228283  74.6603788  95.9276900  24.6473186  75.3284872
  96.1542902  24.8360657  73.8435941  98.3872183  24.7838430  78.3650477
  98.0230390  24.2569051  79.0763399  99.2439299  24.3936899  78.1916963
  98.0277670  19.8128330  73.3611826  98.1952073  20.6808566  73.7282297
  97.8374839  19.9755611  72.4373115 100.7853003  28.2745308  85.0277656
 100.4853726  29.1770347  84.9193463 100.4404063  28.0077492  85.8798809
  94.2365485  24.7259105  81.0614361  93.3115981  24.5935319  81.2692052
  94.4849898  25.5053325  81.5584303 104.1850147  20.7927849  82.7075093
 103.2767024  20.7243257  82.4133854 104.1337743  21.2699794  83.5356919
  98.0066891  22.2685987  74.3458493  97.8866516  22.7143038  75.1843973
  97.3119479  22.6171305  73.7872031  91.5974296  24.3692379  81.8958150
  91.7266677  24.6226858  82.8097561  90.9171747  24.9620087  81.5762805
  95.7673783  35.0389629  77.9948624  95.6897813  35.9897454  78.0737104
  95.1635427  34.6935501  78.6523550 103.7051957  22.7407460  75.1738827
 104.6169813  22.9734847  74.9986524 103.1961604  23.3244504  74.6113905
  96.5137385  25.0202948  90.2127958  97.2552070  25.5587992  89.9362781
  95.8074371  25.6469236  90.3699509 101.9892725  27.1632088  88.8100119
 102.3976081  26.7214499  88.0654752 101.2669986  26.5884716  89.0634312
  98.3423795  22.1004695  86.1833676  99.1884990  22.5244108  86.3268325
  98.2822433  21.4438319  86.8772239 102.3121540  27.7233279  82.5652408
 101.6830402  27.8878993  81.8628476 101.9247202  28.1374888  83.3363372
 106.1910771  28.6587717  79.9196772 105.5061810  29.0386618  79.3693805
 106.2754621  29.2683043  80.6528720 103.4461703  26.3047676  86.5192115
 103.6578598  26.9479435  85.8426496 103.3991451  25.4709992  86.0514045
 101.0487932  18.9165496  83.4228687 100.1872411  19.2146750  83.7145425
 101.0750367  19.1335895  82.4909720  97.8649501  27.4607687  79.8302493
  98.3287847  27.7395390  79.0407116  97.6006300  26.5591131  79.6475584
  94.7573582  27.0079168  82.7682256  95.3274940  27.4366437  82.1299741
  95.3481694  26.7261753  83.4666442  96.8018387  23.5830839  76.6392058
  97.5042431  24.0351883  77.1065985  96.4699016  22.9414658  77.2671951
  95.2498749  22.1742596  91.0143268  94.6197410  22.8558877  91.2478665
  95.1434837  22.0625677  90.0696406  90.5443721  21.8414392  81.9409192
  89.7542775  22.0971920  81.4649302  91.0354969  22.6562730  82.0461232
 104.5607531  29.1819631  84.6914473 105.3824975  28.7799818  84.4097154
 104.5569934  29.0787865  85.6430588  92.4958467  22.2058971  78.8992669
  91.6989630  22.3177665  79.4176164  92.2684059  22.5445623  78.0333559
  98.3264134  28.7303674  86.8475183  98.3908567  29.1924082  87.6833355
  97.6175058  28.1001039  86.9757493  88.8281424  22.0944882  84.3724183
  89.0789463  22.9791892  84.6381759  89.3640973  21.9149484  83.5999274
  98.0412152  30.3971782  76.7154164  97.9057827  31.2423318  77.1439011
  98.5821965  30.5991059  75.9520097  91.4941549  27.9147220  77.2882089
  92.0066070  28.7090470  77.4387653  92.1464262  27.2173510  77.2215690
  93.3036434  31.0312976  79.3704842  93.4803063  31.9530941  79.1825826
  94.0993268  30.7171395  79.7999222  92.5888791  23.0777608  89.2467005
  92.4742306  22.1762865  89.5474104  91.7333308  23.3241305  88.8951822
  99.6680628  31.0195348  90.8454506  99.2244483  30.2331727  90.5275410
 100.3297842  31.2074499  90.1798396  94.4267750  32.5491150  85.3715184
  94.9775175  32.4208213  84.5992178  93.5879226  32.8486039  85.0210077
 101.7661867  31.2998148  88.8735907 101.7480342  32.1207029  88.3816176
 102.6881787  31.1752223  89.0986048  98.2234921  28.8142278  89.7159415
  98.7563257  28.0530566  89.4858723  97.6949002  28.5215930  90.4583570
  89.4590466  26.2435874  78.0641659  90.2965688  26.6532883  77.8475367
  89.6368734  25.3035316  78.0341853 101.3554898  23.9110955  73.7525492
 100.8401522  24.6815559  73.9913879 101.0832207  23.2376091  74.3758554
  98.9402009  18.7560656  78.8110730  98.0843606  18.3667506  78.6316369
  99.3528961  18.8352616  77.9510516 100.4701156  16.2906999  83.2102290
  99.9665952  16.2537134  82.3970096 100.7631763  17.1999742  83.2698947
  96.7144042  16.3745729  82.2168472  97.5797039  16.1788537  81.8574361
  96.7821551  16.1456080  83.1437829 106.3289173  26.6643309  75.6878666
 105.5518615  26.3254469  75.2433828 107.0080653  26.6695933  75.0133631
 101.1441202  21.7838047  75.5785273 100.8391337  22.0984196  76.4295416
 102.0971644  21.8619467  75.6212606  99.5887633  27.9428270  77.2278227
  99.0608995  27.2081030  76.9151465  99.0875136  28.7202947  76.9818196
 104.5680479  26.1377291  82.3445274 103.9104154  26.8276552  82.4325402
 105.3720879  26.5273723  82.6879260  94.3206361  18.6047936  79.5884839
  94.8950113  18.3823118  78.8558032  94.9077343  18.6736631  80.3413440
 103.3785938  24.4921663  80.3949215 103.8917820  25.1251655  80.8970925
 104.0287162  23.8922859  80.0292575  94.6475948  20.6352398  73.6080724
  93.8113260  20.9727084  73.9289999  94.5080718  20.5001377  72.6707861
  96.6229029  15.4789185  78.3159908  95.9693441  15.1638203  77.6916523
  96.5809503  14.8564926  79.0419731  97.7340234  25.7608480  70.2313200
  96.8267295  25.5297734  70.4304349  98.2311266  24.9646100  70.4187182
 100.6408312  34.4705988  73.1509886  99.9670011  34.7737684  73.7594844
 101.0274134  35.2735068  72.8015344  99.8566769  21.9671119  82.6407556
  98.9389330  22.1886066  82.4829244 100.2726913  22.0417429  81.7819263
 100.6401817  23.3662535  77.7710236 101.3873636  23.8783932  77.4617358
 100.9093406  23.0446587  78.6314630  98.9128467  25.8621075  74.7537190
  98.0039686  25.5780108  74.8509660  98.9423551  26.2820154  73.8940497
 104.1447734  29.4727665  78.5228358 103.6910062  28.6318575  78.5793548
 103.5141701  30.1089063  78.8603138 103.0880654  20.4019651  79.7529025
 102.3503411  19.8897037  80.0839268 103.3407428  19.9620032  78.9412302
 102.5880674  31.3104162  79.4578176 102.8803648  31.8709219  78.7390542
 103.0979294  31.6032723  80.2131335  89.4816637  23.5826589  78.7352393
  89.2841037  22.9895950  78.0103459  88.9263301  23.2778800  79.4528331
  97.4613361  23.4749696  80.8546986  97.5161971  22.5223532  80.7789462
  96.6504563  23.6309135  81.3388284  98.6104555  27.4029819  72.0925269
  98.1723985  26.6865678  71.6330906  99.3514996  27.6305934  71.5310360
  95.4005721  22.0926756  78.6137365  94.5873587  22.3920926  79.0202557
  95.8964715  21.6982444  79.3311847  97.5514299  32.0884513  80.5471629
  97.5090478  32.3145359  79.6180161  98.4676998  31.8547887  80.6957430
 100.9979933  22.5568580  87.4452258 101.3529320  22.7840053  88.3046724
 101.6452064  22.8886957  86.8229514 106.7277670  25.6787016  78.1501588
 106.5895568  25.8688612  77.2222777 106.3713888  26.4406399  78.6069639
  94.8919796  19.6645111  84.2298600  95.5319175  19.5233870  83.5321563
  94.0597326  19.3779625  83.8537202 106.7547049  27.7463543  83.1612859
 107.1883556  27.6538832  84.0095913 107.4678630  27.7221044  82.5232875
  95.6680100  28.9647542  80.3433592  96.4620698  28.4697862  80.1416167
  94.9571792  28.4365405  79.9801298 100.4874944  31.3465637  84.6945960
 100.5411966  31.9156573  85.4623676  99.6189725  31.5167522  84.3299997
  91.9762863  23.1090623  76.4193345  91.0460451  23.0475079  76.6363307
  92.0720335  22.5866576  75.6229986  91.8948412  19.6345436  79.0071586
  92.1555229  20.5490769  78.8980747  92.7165584  19.1669879  79.1568199
  93.3673337  21.0483193  86.1770411  94.0396391  20.8400555  85.5283060
  92.5403124  20.8505279  85.7375643  99.4463044  25.5125899  86.2532891
 100.3755104  25.6637059  86.0801859  99.0254074  25.6009920  85.3981538
  98.2451376  29.5376564  84.0231429  98.1062461  29.1695348  84.8957367
  97.4565972  30.0524203  83.8515387  98.8399528  34.6385660  75.3656966
  99.0151283  34.1673703  76.1802588  98.1532316  35.2651426  75.5938226
  99.7956591  28.9158166  81.4120267  99.4606423  28.8758936  82.3077917
  99.2960536  28.2502882  80.9390677  93.7700835  24.3225796  86.9372848
  93.6320633  23.5906035  87.5384387  94.6805758  24.2334696  86.6557036
 102.7315782  26.2614201  71.6857327 102.1144953  25.5361029  71.5890379
 102.2632271  27.0223561  71.3424401  96.3983135  24.0345756  86.4256528
  97.1082754  23.3938948  86.3843146  96.3552444  24.2858651  87.3482708
 104.3869914  30.9713109  89.3463107 104.3282460  30.2872329  88.6793690
 104.7889432  31.7132099  88.8943733  95.1112069  21.0210974  88.2452167
  94.5749426  20.5701712  88.8973763  94.5228778  21.1556882  87.5022632
  93.4060613  37.7875023  82.1396826  93.6457211  38.4193547  82.8175844
  92.5629809  37.4363063  82.4262185  94.5214328  20.4799625  70.8078631
  93.6443795  20.3588426  70.4440877  94.9972081  19.6885703  70.5557519
 104.3887321  28.9352693  87.5777087 103.5014100  28.5978615  87.7003485
 104.9585872  28.2035724  87.8145852  86.0416468  25.2676785  80.9020138
  86.7287508  24.9538515  80.3141153  85.8864597  26.1718149  80.6287389
  90.8451191  20.1566981  85.3305162  90.7609379  19.5492651  84.5955572
  90.0233897  20.6476000  85.3314658  97.9188475  33.5954145  84.5438330
  97.8458646  34.4009117  85.0557634  97.4765868  33.7946111  83.7186351
  97.7078254  32.8325915  78.0541151  96.9245776  33.3747595  78.1479376
  98.4071000  33.3499895  78.4535392 101.0174904  18.6420545  80.6975357
 101.5143604  17.8890507  80.3776427 100.2461886  18.6784861  80.1318566
 108.8704662  24.3460910  82.3393648 108.8594538  25.2285626  81.9687581
 108.0022041  23.9932461  82.1448185 100.3787158  33.4940979  86.6996488
 101.0915130  34.1288444  86.6272390  99.8877187  33.5904845  85.8836490
 102.1004685  27.3992232  78.2713780 101.1660964  27.5193694  78.1018484
 102.2781354  26.4964699  78.0073790  97.6009873  20.7837928  80.4247041
  97.2307661  20.2308968  81.1127947  98.0968966  20.1796061  79.8722041
 105.4877237  23.2409551  78.8063814 105.9537689  24.0737543  78.7324117
 105.9384737  22.7754533  79.5109073  95.4299072  31.2435423  87.5202059
  96.1308531  31.8771906  87.6731453  94.9594187  31.5850154  86.7597699
 103.5553468  29.5853373  75.8049966 103.8313312  29.4709967  76.7143840
 102.6857966  29.1870857  75.7662139 103.2300358  23.7980030  85.3454610
 102.5771808  24.0455938  84.6907062 103.6080738  22.9844168  85.0117087
 100.1907532  33.8339723  79.4482780 100.3729926  33.0161379  79.9110532
 101.0140518  34.0507416  79.0107670 100.5249697  32.7607909  76.7097828
 101.0537464  32.2500363  76.0967990 100.7877917  32.4450439  77.5743361
  91.0266790  30.7771778  84.4533162  91.6120227  30.0315466  84.5861066
  90.8291628  31.0875735  85.3369826  93.8805445  33.8123025  79.4695604
  93.2115820  34.2969153  78.9859644  93.7418315  34.0592246  80.3838983
  85.6184445  23.3477378  83.1737605  85.6568544  22.8140969  83.9674723
  85.1124737  22.8212584  82.5548582  98.0210714  35.8466769  86.0678263
  98.5729022  36.0098390  86.8327348  98.3616907  36.4371207  85.3958288
  92.9975207  18.1941919  86.6700147  93.0616533  19.0556749  86.2577545
  92.9342327  17.5815920  85.9372506  92.4727479  20.2665051  90.3173182
  93.0999518  19.8842128  90.9310706  91.6155398  20.0479253  90.6828874
 102.8721588  30.6728026  91.9226917 103.4161492  31.2857985  91.4281872
 102.2908433  31.2307605  92.4393930  89.2493022  22.0741480  76.2491536
  89.5446463  21.1652159  76.1958590  88.3481058  22.0529220  75.9272539
 101.1579101  33.7948744  83.0541945 101.0330240  32.9938484  82.5452890
 101.8158192  34.2894938  82.5655915  92.7787269  20.1497477  82.2319085
  92.0573855  20.7633444  82.0926558  93.5680525  20.6855242  82.1535731
 103.2214009  31.5957764  84.6821495 102.2744345  31.4763116  84.6099822
 103.5696782  30.7080262  84.7647756  95.5813583  17.4851903  88.5059737
  96.1047985  17.7314200  89.2686046  95.3625916  18.3171938  88.0862874
  90.9780864  19.7555578  76.3730862  90.6493570  18.8752957  76.1905968
  91.3320234  19.7003247  77.2607251 100.2260443  31.3910481  80.8825847
 100.0785405  30.4627188  81.0633417 101.0513936  31.4130571  80.3982922
  94.0922687  20.0428548  76.7406339  94.4318759  20.5714469  76.0184948
  94.5394807  20.3808954  77.5164906 103.8294564  32.2139039  81.9690720
 104.7541112  32.0081901  81.8315171 103.6609868  31.9655440  82.8780061
  96.7866128  18.4265598  86.1909407  96.4462948  17.6273411  86.5930087
  96.0805134  18.7267309  85.6186241  97.4382600  15.5114911  84.6436730
  98.2608669  15.0375389  84.5215621  97.6820663  16.2905395  85.1435417
  96.0790834  18.5403169  74.9399632  96.7999197  18.9184422  74.4363349
  95.4556138  19.2592046  75.0434610 100.2221957  19.2448318  75.8757964
 100.4385571  20.1272956  75.5746793  99.7416024  18.8534532  75.1463606
  94.9621178  22.2034031  82.4528709  94.8165759  22.5174335  83.3452991
  94.4846382  22.8218932  81.8999608  96.8217561  19.1936579  82.5009599
  96.8079130  18.2977673  82.1641896  97.5389989  19.2007243  83.1347885
  98.6743692  19.6273920  84.5462726  98.4161470  20.5490990  84.5447056
  98.1428732  19.2304354  85.2363190 103.6189881  32.7324707  77.3252811
 103.7926758  32.1671129  76.5726664 104.1118772  33.5325602  77.1432301
  89.4366840  24.7439376  85.3916370  88.8920309  25.5199184  85.5236645
  90.3146190  25.0910180  85.2335492  96.2254457  18.0750960  77.7697169
  96.3470368  17.1467606  77.9688056  95.9356500  18.0889646  76.8575484
  99.0945648  15.7605870  80.9063889  99.1167344  15.8245203  79.9515868
  99.5113707  14.9210379  81.1004395 109.4729272  25.4961130  78.9443111
 109.9160418  24.7468455  78.5462234 108.5955782  25.4871266  78.5616843
 104.6065053  32.0491471  74.4249710 105.3015958  32.6698164  74.6437024
 104.9488203  31.1986822  74.7002088  90.2232862  23.8709272  88.2846527
  89.4814598  24.0191907  88.8711157  89.9025607  24.1317538  87.4213276
 106.5056476  29.4991177  75.9537040 107.0307800  29.8378449  75.2286360
 106.4178829  28.5638192  75.7700175  98.1676525  33.4125250  88.0826917
  98.4763651  33.1674397  88.9549617  98.9652007  33.6171889  87.5945787
  98.1897137  35.5663160  80.3132294  97.7502127  35.0739539  81.0065150
  98.9405254  35.0236128  80.0724369  90.6689476  31.7574701  80.3156922
  91.4947496  31.4578473  79.9355565  90.3183528  30.9882323  80.7646710
  95.6371009  31.1101169  82.3854595  95.0151018  30.4471874  82.0856823
  96.3075876  31.1362301  81.7028243  88.8698081  29.6761027  81.2745855
  88.0329989  29.2483202  81.0929857  88.8421726  29.8693471  82.2116646
  95.1984516  29.6605092  75.8613056  95.3472636  30.3440557  75.2079729
  96.0050960  29.6410182  76.3762512  97.9394825  20.3414329  88.7333460
  97.0698135  20.6347896  88.4616048  98.1754305  20.9254774  89.4540724
 109.0162137  26.9666368  81.3365559 109.8509028  27.4056172  81.5003119
 109.1521265  26.4905021  80.5173804  92.9537149  25.6870270  76.8674125
  92.7083191  24.7832600  77.0654335  93.1233064  25.6887420  75.9253603
  92.2232797  21.4198628  74.3660286  91.5302042  21.4942983  73.7100322
  91.9784549  20.6558971  74.8881803  98.6979922  32.1553223  73.3324803
  98.1253889  32.7743410  72.8795275  99.2712715  32.7052585  73.8664725
 101.9177181  32.4390373  74.4633386 102.8507855  32.3735935  74.6666261
 101.8300394  33.2746640  74.0047918 104.5465198  31.7556243  71.4237333
 104.4678830  31.4216107  72.3173091 105.3674865  32.2478011  71.4228805
  99.0826720  23.4914036  70.6740856 100.0285825  23.3620244  70.7429274
  98.7040965  22.7528697  71.1510284  98.9665413  27.5431782  92.1341513
  99.8868422  27.7210381  92.3281559  98.9314996  26.5987827  91.9821212
  97.2669637  21.4164012  70.6095741  96.3601093  21.1197125  70.6858455
  97.5445618  21.1193830  69.7430027  88.1847578  22.7370375  81.0594787
  87.8650362  21.8835684  80.7669161  87.6381006  22.9518954  81.8152755
  91.9627485  25.4532816  84.7764294  92.1813495  26.3849924  84.7952328
  92.3753259  25.0940791  85.5619098  98.8831703  15.9600902  76.7639982
  98.0732431  15.6147987  77.1395228  99.5716120  15.6508445  77.3527594
 100.8122251  15.0378949  78.3864279 101.3653290  15.4574402  79.0454302
 101.0492338  14.1114697  78.4287235  96.0368422  18.2750947  70.7507720
  96.8987586  18.6005846  71.0103538  96.2218766  17.4882443  70.2380786
  88.0535838  26.3573287  83.0287909  87.3599309  25.9427240  82.5157863
  88.8008829  26.3993823  82.4321328 104.1901058  17.1479474  77.8942943
 103.6099727  17.8064278  77.5120996 103.9236991  16.3256818  77.4830361
 102.6404625  16.5484531  80.0964263 103.1404403  16.6601066  79.2878582
 103.2840233  16.2445584  80.7365072  96.6986621  24.4563161  92.9832104
  96.2153702  25.2563521  93.1895993  96.7847560  24.4671106  92.0299548
  89.9672580  26.2891541  80.9053924  89.9443268  26.3879228  79.9535807
  90.2773217  27.1356691  81.2271090  92.6259958  28.3467696  85.0200538
  93.5803212  28.3151638  84.9530470  92.4272482  27.8858319  85.8350764
  93.2159340  26.9168812  87.5871336  94.0352229  27.4112890  87.6106173
  93.4896148  26.0000780  87.5588903 102.9725936  19.3079564  76.9499291
 102.0851791  19.5929215  76.7319486 103.3879925  19.1473327  76.1026568
 106.3240473  19.3326085  80.6653631 107.1000863  19.8222537  80.9378247
 105.5988607  19.7584139  81.1225500  90.9810187  33.8887315  82.0370736
  90.8464655  33.1287716  81.4708734  90.5642249  34.6128215  81.5699525
 102.1169150  29.0724239  71.0447311 102.8205000  29.2774241  71.6604967
 101.3931799  29.6401001  71.3096395 102.9466960  24.8234100  77.1649582
 102.8902162  25.2802651  76.3257214 103.4995303  24.0624785  76.9872424
 106.7571766  20.6123832  77.9899701 106.5008700  20.2120468  78.8207909
 106.1324634  21.3267626  77.8649840  94.1379313  34.7856632  82.2489179
  94.0211697  35.7302065  82.1467869  93.3171759  34.4830194  82.6374978
 104.0255847  29.5106768  73.0945771 104.8601451  29.0787966  72.9123246
 103.8640190  29.3388782  74.0222666 103.6801739  26.0138881  74.4602111
 103.6250543  25.8483153  73.5190555 103.0547795  26.7214914  74.6164300
  88.4694254  21.2506946  88.2863533  89.1153118  20.7405900  88.7750758
  88.2611406  21.9875627  88.8606958  96.9897865  15.5146990  74.0387429
  96.9776535  16.4588830  74.1955700  97.8821287  15.3317136  73.7446890
  95.1633827  35.4384894  85.4645107  96.0661074  35.4708504  85.7811602
  94.9371197  34.5085345  85.4791443  96.9187429  34.1915881  82.1255186
  95.9683060  34.1917742  82.0119558  97.2219915  33.4448615  81.6091220
 109.4629829  39.9803847  83.1262473 109.1248340  39.8644912  82.2383008
 110.3319597  39.5795012  83.1063479 105.3216644  41.8339324  79.1159364
 104.7581509  41.7429260  78.3475652 105.2069039  41.0139228  79.5961856
 109.9449612  41.1338699  89.0848678 109.9338252  40.7391497  88.2129182
 110.1070251  40.4004771  89.6782450 102.8681076  43.3290515  81.9543584
 103.6602368  42.9881340  81.5389884 103.1077726  43.4385490  82.8745738
 104.8271830  42.5899428  74.8260963 105.6002706  42.0428415  74.6873839
 105.1797229  43.4543678  75.0375424 106.6656873  43.9175811  88.0327862
 106.3746739  44.8221442  87.9174529 107.3013857  43.9592338  88.7471932
 107.5913080  41.2952659  84.6229222 108.1876652  41.0708682  83.9086185
 107.6488051  40.5537405  85.2254670 107.1638108  38.7492095  72.4579413
 107.4163629  38.2273616  71.6962876 106.2262667  38.5858240  72.5606097
 106.8834397  40.6520200  74.6603788 106.7670655  39.9765104  75.3284872
 106.9936657  40.1652574  73.8435941 109.2265938  40.1130348  78.3650477
 108.8624145  39.5860969  79.0763399 110.0833054  39.7228817  78.1916963
 108.8671425  35.1420247  73.3611826 109.0345827  36.0100484  73.7282297
 108.6768594  35.3047529  72.4373115 105.0759239  40.0551023  81.0614361
 104.1509736  39.9227237  81.2692052 105.3243653  40.8345242  81.5584303
 108.8460646  37.5977905  74.3458493 108.7260271  38.0434956  75.1843973
 108.1513234  37.9463222  73.7872031 102.4368050  39.6984297  81.8958150
 102.5660432  39.9518775  82.8097561 101.7565502  40.2912005  81.5762805
 106.6067538  50.3681547  77.9948624 106.5291567  51.3189372  78.0737104
 106.0029181  50.0227419  78.6523550 107.3531140  40.3494865  90.2127958
 108.0945824  40.8879909  89.9362781 106.6468125  40.9761154  90.3699509
 109.1817549  37.4296613  86.1833676 110.0278745  37.8536026  86.3268325
 109.1216187  36.7730237  86.8772239 108.7043256  42.7899604  79.8302493
 109.1681601  43.0687307  79.0407116 108.4400054  41.8883049  79.6475584
 105.5967337  42.3371086  82.7682256 106.1668694  42.7658354  82.1299741
 106.1875449  42.0553671  83.4666442 107.6412142  38.9122757  76.6392058
 108.3436185  39.3643801  77.1065985 107.3092770  38.2706576  77.2671951
 106.0892503  37.5034513  91.0143268 105.4591164  38.1850794  91.2478665
 105.9828591  37.3917595  90.0696406 101.3837476  37.1706310  81.9409192
 100.5936530  37.4263838  81.4649302 101.8748723  37.9854647  82.0461232
 103.3352221  37.5350889  78.8992669 102.5383385  37.6469583  79.4176164
 103.1077813  37.8737541  78.0333559 109.1657889  44.0595592  86.8475183
 109.2302321  44.5215999  87.6833355 108.4568813  43.4292957  86.9757493
  99.6675179  37.4236800  84.3724183  99.9183217  38.3083810  84.6381759
 100.2034727  37.2441401  83.5999274 108.8805907  45.7263699  76.7154164
 108.7451581  46.5715235  77.1439011 109.4215719  45.9282977  75.9520097
 102.3335304  43.2439138  77.2882089 102.8459825  44.0382388  77.4387653
 102.9858017  42.5465428  77.2215690 104.1430189  46.3604894  79.3704842
 104.3196817  47.2822858  79.1825826 104.9387022  46.0463313  79.7999222
 103.4282545  38.4069526  89.2467005 103.3136060  37.5054783  89.5474104
 102.5727063  38.6533222  88.8951822 105.2661504  47.8783068  85.3715184
 105.8168929  47.7500131  84.5992178 104.4272980  48.1777957  85.0210077
 109.0628675  44.1434195  89.7159415 109.5957012  43.3822484  89.4858723
 108.5342756  43.8507847  90.4583570 100.2984221  41.5727792  78.0641659
 101.1359443  41.9824800  77.8475367 100.4762488  40.6327234  78.0341853
 109.7795764  34.0852573  78.8110730 108.9237360  33.6959424  78.6316369
 110.1922716  34.1644534  77.9510516 107.5537796  31.7037646  82.2168472
 108.4190793  31.5080455  81.8574361 107.6215305  31.4747998  83.1437829
 110.4281388  43.2720188  77.2278227 109.9002749  42.5372947  76.9151465
 109.9268891  44.0494864  76.9818196 105.1600115  33.9339854  79.5884839
 105.7343867  33.7115036  78.8558032 105.7471098  34.0028549  80.3413440
 105.4869703  35.9644315  73.6080724 104.6507015  36.3019002  73.9289999
 105.3474472  35.8293295  72.6707861 107.4622783  30.8081103  78.3159908
 106.8087196  30.4930120  77.6916523 107.4203257  30.1856844  79.0419731
 108.5733988  41.0900398  70.2313200 107.6661050  40.8589652  70.4304349
 109.0705020  40.2938017  70.4187182 109.7522221  41.1912993  74.7537190
 108.8433441  40.9072026  74.8509660 109.7817305  41.6112072  73.8940497
 100.3210392  38.9118507  78.7352393 100.1234792  38.3187868  78.0103459
  99.7657056  38.6070717  79.4528331 108.3007116  38.8041614  80.8546986
 108.3555725  37.8515450  80.7789462 107.4898318  38.9601053  81.3388284
 109.4498309  42.7321737  72.0925269 109.0117739  42.0157596  71.6330906
 110.1908750  42.9597851  71.5310360 106.2399475  37.4218673  78.6137365
 105.4267341  37.7212844  79.0202557 106.7358470  37.0274362  79.3311847
 108.3908053  47.4176430  80.5471629 108.3484232  47.6437277  79.6180161
 109.3070752  47.1839805  80.6957430 105.7313550  34.9937029  84.2298600
 106.3712930  34.8525788  83.5321563 104.8991081  34.7071542  83.8537202
 106.5073854  44.2939459  80.3433592 107.3014453  43.7989779  80.1416167
 105.7965547  43.7657322  79.9801298 102.8156618  38.4382541  76.4193345
 101.8854206  38.3766997  76.6363307 102.9114090  37.9158494  75.6229986
 102.7342167  34.9637354  79.0071586 102.9948984  35.8782687  78.8980747
 103.5559339  34.4961796  79.1568199 104.2067092  36.3775111  86.1770411
 104.8790145  36.1692473  85.5283060 103.3796878  36.1797197  85.7375643
 109.0845130  44.8668481  84.0231429 108.9456216  44.4987266  84.8957367
 108.2959726  45.3816121  83.8515387 109.6793282  49.9677578  75.3656966
 109.8545038  49.4965621  76.1802588 108.9926070  50.5943344  75.5938226
 104.6094589  39.6517714  86.9372848 104.4714387  38.9197953  87.5384387
 105.5199513  39.5626614  86.6557036 107.2376890  39.3637673  86.4256528
 107.9476508  38.7230866  86.3843146 107.1946198  39.6150568  87.3482708
 105.9505824  36.3502891  88.2452167 105.4143181  35.8993630  88.8973763
 105.3622532  36.4848800  87.5022632 104.2454367  53.1166941  82.1396826
 104.4850966  53.7485465  82.8175844 103.4023564  52.7654981  82.4262185
 105.3608083  35.8091543  70.8078631 104.4837549  35.6880343  70.4440877
 105.8365836  35.0177621  70.5557519  96.8810223  40.5968702  80.9020138
  97.5681263  40.2830432  80.3141153  96.7258352  41.5010067  80.6287389
 101.6844945  35.4858899  85.3305162 101.6003134  34.8784568  84.5955572
 100.8627652  35.9767917  85.3314658 108.7582229  48.9246063  84.5438330
 108.6852401  49.7301034  85.0557634 108.3159622  49.1238029  83.7186351
 108.5472009  48.1617833  78.0541151 107.7639531  48.7039513  78.1479376
 109.2464754  48.6791813  78.4535392 108.4403628  36.1129845  80.4247041
 108.0701415  35.5600886  81.1127947 108.9362720  35.5087979  79.8722041
 106.2692826  46.5727340  87.5202059 106.9702286  47.2063823  87.6731453
 105.7987941  46.9142072  86.7597699 101.8660544  46.1063695  84.4533162
 102.4513981  45.3607383  84.5861066 101.6685383  46.4167652  85.3369826
 104.7199200  49.1414943  79.4695604 104.0509575  49.6261071  78.9859644
 104.5812069  49.3884163  80.3838983  96.4578199  38.6769296  83.1737605
  96.4962299  38.1432886  83.9674723  95.9518492  38.1504501  82.5548582
 108.8604468  51.1758686  86.0678263 109.4122776  51.3390308  86.8327348
 109.2010662  51.7663124  85.3958288 103.8368961  33.5233836  86.6700147
 103.9010288  34.3848667  86.2577545 103.7736082  32.9107838  85.9372506
 103.3121234  35.5956969  90.3173182 103.9393273  35.2134046  90.9310706
 102.4549153  35.3771171  90.6828874 100.0886777  37.4033398  76.2491536
 100.3840218  36.4944076  76.1958590  99.1874812  37.3821137  75.9272539
 103.6181024  35.4789394  82.2319085 102.8967609  36.0925362  82.0926558
 104.4074279  36.0147159  82.1535731 106.4207337  32.8143821  88.5059737
 106.9441739  33.0606117  89.2686046 106.2019670  33.6463856  88.0862874
 101.8174618  35.0847496  76.3730862 101.4887324  34.2044874  76.1905968
 102.1713989  35.0295164  77.2607251 104.9316441  35.3720465  76.7406339
 105.2712514  35.9006387  76.0184948 105.3788562  35.7100871  77.5164906
 107.6259882  33.7557516  86.1909407 107.2856703  32.9565329  86.5930087
 106.9198889  34.0559227  85.6186241 108.2776354  30.8406828  84.6436730
 109.1002423  30.3667307  84.5215621 108.5214418  31.6197312  85.1435417
 106.9184589  33.8695087  74.9399632 107.6392951  34.2476340  74.4363349
 106.2949893  34.5883964  75.0434610 105.8014933  37.5325949  82.4528709
 105.6559514  37.8466252  83.3452991 105.3240136  38.1510849  81.8999608
 107.6611316  34.5228497  82.5009599 107.6472884  33.6269590  82.1641896
 108.3783744  34.5299161  83.1347885 109.5137446  34.9565837  84.5462726
 109.2555224  35.8782908  84.5447056 108.9822487  34.5596272  85.2363190
 100.2760595  40.0731293  85.3916370  99.7314063  40.8491101  85.5236645
 101.1539945  40.4202098  85.2335492 107.0648212  33.4042877  77.7697169
 107.1864123  32.4759524  77.9688056 106.7750254  33.4181563  76.8575484
 109.9339402  31.0897788  80.9063889 109.9561099  31.1537121  79.9515868
 110.3507461  30.2502296  81.1004395 101.0626617  39.2001190  88.2846527
 100.3208353  39.3483825  88.8711157 100.7419361  39.4609455  87.4213276
 109.0070279  48.7417168  88.0826917 109.3157406  48.4966315  88.9549617
 109.8045762  48.9463806  87.5945787 109.0290892  50.8955078  80.3132294
 108.5895882  50.4031456  81.0065150 109.7799008  50.3528045  80.0724369
 101.5083231  47.0866618  80.3156922 102.3341250  46.7870390  79.9355565
 101.1577283  46.3174241  80.7646710 106.4764764  46.4393087  82.3854595
 105.8544773  45.7763792  82.0856823 107.1469631  46.4654219  81.7028243
  99.7091836  45.0052945  81.2745855  98.8723744  44.5775119  81.0929857
  99.6815481  45.1985388  82.2116646 106.0378271  44.9897010  75.8613056
 106.1866391  45.6732474  75.2079729 106.8444714  44.9702100  76.3762512
 108.7788580  35.6706247  88.7333460 107.9091889  35.9639813  88.4616048
 109.0148060  36.2546692  89.4540724 103.7930904  41.0162188  76.8674125
 103.5476946  40.1124518  77.0654335 103.9626818  41.0179338  75.9253603
 103.0626551  36.7490545  74.3660286 102.3695796  36.8234900  73.7100322
 102.8178303  35.9850889  74.8881803 109.5373676  47.4845140  73.3324803
 108.9647643  48.1035328  72.8795275 110.1106470  48.0344502  73.8664725
 108.1063392  36.7455930  70.6095741 107.1994847  36.4489042  70.6858455
 108.3839373  36.4485748  69.7430027  99.0241332  38.0662293  81.0594787
  98.7044116  37.2127601  80.7669161  98.4774760  38.2810871  81.8152755
 102.8021240  40.7824734  84.7764294 103.0207249  41.7141842  84.7952328
 103.2147014  40.4232708  85.5619098 109.7225457  31.2892819  76.7639982
 108.9126186  30.9439904  77.1395228 110.4109874  30.9800363  77.3527594
 106.8762176  33.6042865  70.7507720 107.7381340  33.9297763  71.0103538
 107.0612521  32.8174361  70.2380786  98.8929592  41.6865205  83.0287909
  98.1993064  41.2719157  82.5157863  99.6402583  41.7285741  82.4321328
 107.5380375  39.7855079  92.9832104 107.0547457  40.5855439  93.1895993
 107.6241314  39.7963024  92.0299548 100.8066335  41.6183458  80.9053924
 100.7837023  41.7171146  79.9535807 101.1166971  42.4648609  81.2271090
 103.4653713  43.6759613  85.0200538 104.4196966  43.6443556  84.9530470
 103.2666236  43.2150237  85.8350764 104.0553095  42.2460729  87.5871336
 104.8745984  42.7404808  87.6106173 104.3289902  41.3292698  87.5588903
 101.8203941  49.2179233  82.0370736 101.6858409  48.4579634  81.4708734
 101.4036004  49.9420133  81.5699525 104.9773067  50.1148550  82.2489179
 104.8605451  51.0593982  82.1467869 104.1565513  49.8122111  82.6374978
  99.3088009  36.5798863  88.2863533  99.9546873  36.0697817  88.7750758
  99.1005160  37.3167545  88.8606958 107.8291619  30.8438908  74.0387429
 107.8170289  31.7880748  74.1955700 108.7215041  30.6609053  73.7446890
 106.0027581  50.7676812  85.4645107 106.9054828  50.8000422  85.7811602
 105.7764951  49.8377263  85.4791443 107.7581183  49.5207798  82.1255186
 106.8076814  49.5209660  82.0119558 108.0613670  48.7740533  81.6091220
 107.7203977  55.9260620  80.9020138 108.4075017  55.6122350  80.3141153
 107.5652106  56.8301985  80.6287389 107.2971954  54.0061213  83.1737605
 107.3356053  53.4724804  83.9674723 106.7912246  53.4796419  82.5548582
 109.8635087  53.3954211  81.0594787 109.5437871  52.5419519  80.7669161
 109.3168515  53.6102789  81.8152755 109.7323347  57.0157122  83.0287909
 109.0386818  56.6011075  82.5157863 110.4796338  57.0577659  82.4321328
  95.7673784  12.0451751  64.7193930  95.6897814  12.9959577  64.7982411
  95.1635428  11.6997624  65.3768857  93.4060614  14.7937145  68.8642132
  93.6457212  15.4255670  69.5421151  92.5629811  14.4425185  69.1507492
  93.8805446  10.8185148  66.1940911  93.2115822  11.3031275  65.7104951
  93.7418316  11.0654368  67.1084290  98.0210715  12.8528891  72.7923569
  98.5729023  13.0160513  73.5572655  98.3616908  13.4433329  72.1203594
  90.9810188  10.8949438  68.7616043  90.8464656  10.1349839  68.1954041
  90.5642250  11.6190338  68.2944832  94.1379314  11.7918755  68.9734485
  94.0211698  12.7364187  68.8713176  93.3171760  11.4892316  69.3620285
  95.1633828  12.4447017  72.1890414  96.0661075  12.4770627  72.5056909
  94.9371198  11.5147468  72.2036750 109.4629830  16.9865970  69.8507780
 109.1248341  16.8707034  68.9628314 110.3319598  16.5857135  69.8308786
 105.3216646  18.8401446  65.8404670 104.7581511  18.7491383  65.0720958
 105.2069041  18.0201351  66.3207163 109.9449613  18.1400821  75.8093985
 109.9338254  17.7453620  74.9374489 110.1070252  17.4066894  76.4027757
 102.8681078  20.3352638  68.6788891 103.6602369  19.9943462  68.2635190
 103.1077728  20.4447613  69.5991044 104.8271831  19.5961551  61.5506270
 105.6002707  19.0490538  61.4119146 105.1797230  20.4605800  61.7620731
 106.6656874  20.9237933  74.7573169 106.3746740  21.8283564  74.6419835
 107.3013858  20.9654461  75.4717239 107.5913081  18.3014782  71.3474529
 108.1876653  18.0770804  70.6331492 107.6488052  17.5599527  71.9499977
 106.8834398  17.6582323  61.3849095 106.7670656  16.9827226  62.0530179
 106.9936658  17.1714697  60.5681248 109.2265939  17.1192470  65.0895784
 108.8624146  16.5923091  65.8008705 110.0833055  16.7290939  64.9162269
 105.0759241  17.0613146  67.7859667 104.1509737  16.9289360  67.9937359
 105.3243654  17.8407365  68.2829610 102.4368052  16.7046419  68.6203456
 102.5660433  16.9580898  69.5342868 101.7565503  17.2974127  68.3008111
 106.6067539  27.3743669  64.7193930 106.5291569  28.3251494  64.7982411
 106.0029183  27.0289542  65.3768857 107.3531141  17.3556988  76.9373264
 108.0945825  17.8942032  76.6608088 106.6468126  17.9823277  77.0944816
 108.7043257  19.7961727  66.5547800 109.1681603  20.0749430  65.7652422
 108.4400055  18.8945172  66.3720890 105.5967338  19.3433209  69.4927563
 106.1668695  19.7720477  68.8545048 106.1875450  19.0615793  70.1911749
 101.3837477  14.1768432  68.6654498 100.5936531  14.4325961  68.1894609
 101.8748725  14.9916770  68.7706539 103.3352223  14.5413011  65.6237975
 102.5383386  14.6531706  66.1421471 103.1077815  14.8799664  64.7578866
 109.1657890  21.0657715  73.5720490 109.2302323  21.5278122  74.4078662
 108.4568814  20.4355079  73.7002800  99.6675180  14.4298923  71.0969489
  99.9183219  15.3145932  71.3627065 100.2034729  14.2503524  70.3244581
 108.8805908  22.7325822  63.4399470 108.7451583  23.5777358  63.8684318
 109.4215720  22.9345100  62.6765404 102.3335305  20.2501260  64.0127395
 102.8459826  21.0444510  64.1632960 102.9858018  19.5527551  63.9460997
 104.1430190  23.3667016  66.0950148 104.3196818  24.2884981  65.9071132
 104.9387023  23.0525436  66.5244528 103.4282546  15.4131648  75.9712312
 103.3136062  14.5116906  76.2719411 102.5727064  15.6595345  75.6197128
 105.2661505  24.8845190  72.0960491 105.8168931  24.7562254  71.3237485
 104.4272981  25.1840079  71.7455384 109.0628676  21.1496318  76.4404722
 109.5957013  20.3884606  76.2104030 108.5342758  20.8569970  77.1828876
 100.2984222  18.5789914  64.7886966 101.1359444  18.9886923  64.5720673
 100.4762490  17.6389357  64.7587160 110.4281389  20.2782310  63.9523534
 109.9002751  19.5435070  63.6396771 109.9268892  21.0556987  63.7063502
 108.5733989  18.0962521  56.9558507 107.6661051  17.8651774  57.1549656
 109.0705021  17.3000140  57.1432488 109.7522223  18.1975116  61.4782497
 108.8433442  17.9134148  61.5754967 109.7817307  18.6174194  60.6185804
 100.3210393  15.9180630  65.4597699 100.1234793  15.3249990  64.7348766
  99.7657057  15.6132840  66.1773638 109.4498311  19.7383859  58.8170576
 109.0117740  19.0219718  58.3576213 110.1908751  19.9659974  58.2555667
 108.3908055  24.4238553  67.2716936 108.3484233  24.6499399  66.3425468
 109.3070753  24.1901927  67.4202737 106.5073855  21.3001582  67.0678899
 107.3014454  20.8051902  66.8661474 105.7965548  20.7719445  66.7046604
 102.8156619  15.4444664  63.1438651 101.8854207  15.3829119  63.3608613
 102.9114091  14.9220616  62.3475293 109.0845131  21.8730604  70.7476736
 108.9456217  21.5049388  71.6202674 108.2959728  22.3878243  70.5760694
 109.6793283  26.9739700  62.0902272 109.8545039  26.5027744  62.9047895
 108.9926071  27.6005467  62.3183533 104.6094590  16.6579837  73.6618155
 104.4714388  15.9260075  74.2629694 105.5199514  16.5688737  73.3802342
 107.2376891  16.3699796  73.1501834 107.9476510  15.7292988  73.1088453
 107.1946199  16.6212691  74.0728015 104.2454369  30.1229063  68.8642132
 104.4850967  30.7547587  69.5421151 103.4023565  29.7717103  69.1507492
  96.8810224  17.6030825  67.6265445  97.5681264  17.2892555  67.0386460
  96.7258353  18.5072190  67.3532696 108.7582231  25.9308186  71.2683636
 108.6852402  26.7363157  71.7802941 108.3159624  26.1300151  70.4431658
 108.5472010  25.1679956  64.7786458 107.7639532  25.7101636  64.8724682
 109.2464755  25.6853935  65.1780699 106.2692828  23.5789463  74.2447366
 106.9702287  24.2125946  74.3976760 105.7987943  23.9204195  73.4843005
 101.8660546  23.1125818  71.1778469 102.4513982  22.3669506  71.3106373
 101.6685384  23.4229775  72.0615132 104.7199201  26.1477065  66.1940911
 104.0509576  26.6323193  65.7104951 104.5812071  26.3946286  67.1084290
  96.4578200  15.6831418  69.8982912  96.4962300  15.1495009  70.6920030
  95.9518493  15.1566624  69.2793889 108.8604469  28.1820809  72.7923569
 109.4122777  28.3452431  73.5572655 109.2010663  28.7725247  72.1203594
 100.0886778  14.4095520  62.9736843 100.3840219  13.5006199  62.9203897
  99.1874814  14.3883260  62.6517845 100.2760596  17.0793416  72.1161677
  99.7314064  17.8553224  72.2481951 101.1539946  17.4264221  71.9580798
 101.0626618  16.2063312  75.0091834 100.3208354  16.3545948  75.5956464
 100.7419362  16.4671578  74.1458583 109.0070281  25.7479291  74.8072224
 109.3157407  25.5028437  75.6794923 109.8045763  25.9525929  74.3191094
 109.0290893  27.9017200  67.0377600 108.5895883  27.4093579  67.7310457
 109.7799010  27.3590168  66.7969675 101.5083232  24.0928741  67.0402228
 102.3341252  23.7932513  66.6600872 101.1577284  23.3236364  67.4892017
 106.4764765  23.4455209  69.1099902 105.8544774  22.7825914  68.8102130
 107.1469632  23.4716341  68.4273550  99.7091837  22.0115068  67.9991162
  98.8723745  21.5837242  67.8175163  99.6815482  22.2047511  68.9361953
 106.0378272  21.9959133  62.5858362 106.1866392  22.6794597  61.9325035
 106.8444715  21.9764223  63.1007818 103.7930905  18.0224310  63.5919431
 103.5476947  17.1186640  63.7899642 103.9626819  18.0241461  62.6498909
 109.5373677  24.4907263  60.0570110 108.9647644  25.1097450  59.6040582
 110.1106471  25.0406625  60.5910032  99.0241333  15.0724416  67.7840094
  98.7044118  14.2189724  67.4914468  98.4774762  15.2872994  68.5398061
 102.8021241  17.7886857  71.5009601 103.0207251  18.7203964  71.5197634
 103.2147015  17.4294831  72.2864404  98.8929593  18.6927327  69.7533216
  98.1993065  18.2781280  69.2403170  99.6402584  18.7347864  69.1566634
 107.5380376  16.7917201  79.7077411 107.0547458  17.5917561  79.9141300
 107.6241315  16.8025146  78.7544855 100.8066336  18.6245581  67.6299230
 100.7837024  18.7233268  66.6781114 101.1166972  19.4710732  67.9516397
 103.4653714  20.6821736  71.7445845 104.4196967  20.6505678  71.6775776
 103.2666237  20.2212360  72.5596071 104.0553096  19.2522852  74.3116643
 104.8745985  19.7466931  74.3351480 104.3289904  18.3354820  74.2834210
 101.8203943  26.2241355  68.7616043 101.6858411  25.4641756  68.1954041
 101.4036005  26.9482255  68.2944832 104.9773068  27.1210672  68.9734485
 104.8605453  28.0656105  68.8713176 104.1565515  26.8184234  69.3620285
  99.3088010  13.5860986  75.0108840  99.9546874  13.0759940  75.4996065
  99.1005161  14.3229668  75.5852265 106.0027583  27.7738934  72.1890414
 106.9054829  27.8062545  72.5056909 105.7764953  26.8439385  72.2036750
 107.7581185  26.5269921  68.8500492 106.8076816  26.5271783  68.7364865
 108.0613671  25.7802655  68.3336527 107.7203979  32.9322743  67.6265445
 108.4075019  32.6184473  67.0386460 107.5652107  33.8364107  67.3532696
 107.2971955  31.0123336  69.8982912 107.3356054  30.4786927  70.6920030
 106.7912248  30.4858541  69.2793889 109.8635088  30.4016333  67.7840094
 109.5437872  29.5481642  67.4914468 109.3168516  30.6164911  68.5398061
 109.7323348  34.0219245  69.7533216 109.0386819  33.6073198  69.2403170
 110.4796339  34.0639781  69.1566634  35.6045782  57.4643867 112.9773963
  34.9307481  57.7675564 113.5858921  35.9911604  58.2672947 112.6279421
  39.5702522  55.0429350 114.2513787  40.2653427  55.6636043 114.4701101
  39.9125673  54.1924702 114.5266165  33.6617391  55.1491102 113.1588880
  33.0891358  55.7681289 112.7059352  34.2350185  55.6990464 113.6928802
  36.8814651  55.4328252 114.2897463  37.8145324  55.3673814 114.4930338
  36.7937864  56.2684519 113.8311995  39.5102667  54.7494122 111.2501410
  39.4316299  54.4153986 112.1437168  40.3312334  55.2415890 111.2492882
  37.0806619  52.0662118 110.8711388  37.7842469  52.2712120 111.4869044
  36.3569268  52.6338880 111.1360472  38.9893317  52.5044647 112.9209848
  39.8238920  52.0725846 112.7387323  38.8277659  52.3326661 113.8486743
  40.2854114  64.8277203 118.9423441  39.7218979  64.7367140 118.1739729
  40.1706509  64.0077107 119.4225933  45.8653672  68.4948170 114.2537906
  45.2141652  69.0802251 113.8671920  46.6598035  69.0254365 114.3132943
  39.7909299  65.5837308 114.6525040  40.5640175  65.0366295 114.5137916
  40.1434698  66.4481557 114.8639501  42.1275577  61.7429974 112.2843490
  42.3801098  61.2211495 111.5226953  41.1900136  61.5796119 112.3870174
  47.1718860  60.7465752 120.0918233  47.9581949  60.3285175 119.7408650
  47.4357564  61.6511844 120.2599882  47.3428937  66.1838602 114.7906890
  46.7074770  66.2573229 115.5027795  47.0126344  66.7732201 114.1125969
  41.8471866  63.6458080 114.4867865  41.7308124  62.9702983 115.1548949
  41.9574126  63.1590454 113.6700018  44.1903407  63.1068227 118.1914554
  43.8261614  62.5798848 118.9027476  45.0470523  62.7166696 118.0181040
  43.8308894  58.1358126 113.1875903  43.9983296  59.0038363 113.5546374
  43.6406063  58.2985408 112.2637192  43.8098115  60.5915784 114.1722570
  43.6897740  61.0372835 115.0108050  43.1150703  60.9401102 113.6136108
  49.5083181  61.0637257 115.0002904  50.4201037  61.2964644 114.8250601
  48.9992828  61.6474301 114.4377982  43.6680725  65.7837484 119.6566570
  44.1319071  66.0625187 118.8671193  43.4037523  64.8820928 119.4739661
  42.6049611  61.9060636 116.4656135  43.3073655  62.3581680 116.9330062
  42.2730240  61.2644455 117.0936028  43.8443376  68.7201579 116.5418241
  43.7089051  69.5653114 116.9703088  44.3853188  68.9220856 115.7784174
  37.2972773  66.2377017 117.1146166  37.8097294  67.0320267 117.2651730
  37.9495486  65.5403307 117.0479767  39.1067658  69.3542773 119.1968919
  39.2834286  70.2760738 119.0089903  39.9024491  69.0401192 119.6263299
  35.2621690  64.5665671 117.8905736  36.0996912  64.9762679 117.6739444
  35.4399958  63.6265113 117.8605930  47.1586122  62.2340752 113.5789569
  46.6432746  63.0045356 113.8177957  46.8863431  61.5605888 114.2022631
  44.7433233  57.0790452 118.6374807  43.8874830  56.6897303 118.4580446
  45.1560185  57.1582413 117.7774593  52.1320396  64.9873106 115.5142743
  51.3549839  64.6484266 115.0697905  52.8111877  64.9925729 114.8397708
  46.9472425  60.1067844 115.4049350  46.6422561  60.4213993 116.2559493
  47.9002867  60.1849264 115.4476683  45.3918857  66.2658067 117.0542304
  44.8640219  65.5310827 116.7415542  44.8906360  67.0432743 116.8082273
  40.4507172  58.9582194 113.4344801  39.6144484  59.2956881 113.7554076
  40.3111942  58.8231174 112.4971938  43.5371457  64.0838277 110.0577277
  42.6298519  63.8527531 110.2568426  44.0342489  63.2875897 110.2451259
  46.4439536  72.7935785 112.9773963  45.7701235  73.0967481 113.5858921
  46.8305358  73.5964865 112.6279421  46.4433041  61.6892331 117.5974313
  47.1904860  62.2013729 117.2881435  46.7124630  61.3676384 118.4578707
  44.7159691  64.1850872 114.5801267  43.8070910  63.9009905 114.6773737
  44.7454775  64.6049951 113.7204574  48.8911878  58.7249448 119.5793102
  48.1534635  58.2126834 119.9103345  49.1438651  58.2849829 118.7676379
  44.4135779  65.7259616 111.9189346  43.9755209  65.0095475 111.4594983
  45.1546219  65.9535731 111.3574437  41.2036945  60.4156553 118.4401442
  40.3904810  60.7150723 118.8466634  41.6995939  60.0212241 119.1575924
  52.5308893  64.0016813 117.9765665  52.3926792  64.1918409 117.0486854
  52.1745112  64.7636196 118.4333716  41.4711323  67.2877338 120.1697669
  42.2651922  66.7927659 119.9680244  40.7603016  66.7595202 119.8065375
  37.7794087  61.4320420 116.2457422  36.8491675  61.3704876 116.4627384
  37.8751559  60.9096373 115.4494063  44.6430751  72.9615457 115.1921043
  44.8182507  72.4903500 116.0066665  43.9563539  73.5881223 115.4202303
  48.5347006  64.5843998 111.5121404  47.9176177  63.8590826 111.4154456
  48.0663495  65.3453358 111.1688478  40.3245552  58.8029422 110.6342708
  39.4475018  58.6818223 110.2704954  40.8003305  58.0115500 110.3821596
  47.9035909  65.7222029 118.0977857  46.9692188  65.8423491 117.9282561
  48.0812577  64.8194496 117.8337867  51.2908460  61.5639348 118.6327891
  51.7568913  62.3967340 118.5588194  51.7415961  61.0984330 119.3373150
  49.3584691  67.9083169 115.6314043  49.6344535  67.7939764 116.5407917
  48.4889190  67.5100654 115.5926216  46.3280921  71.0837705 116.5361905
  46.8568687  70.5730160 115.9232067  46.5909141  70.7680236 117.4007438
  35.0524246  60.3971277 116.0755613  35.3477687  59.4881955 116.0222667
  34.1512282  60.3759016 115.7536616  39.8953911  58.3658345 116.5670416
  40.2349983  58.8944266 115.8449025  40.3426031  58.7038751 117.3428983
  41.8822058  56.8632966 114.7663709  42.6030420  57.2414219 114.2627426
  41.2587362  57.5821843 114.8698687  46.0253181  57.5678115 115.7022041
  46.2416795  58.4502753 115.4010870  45.5447248  57.1764328 114.9727683
  50.4096277  70.3721268 114.2513787  51.1047182  70.9927961 114.4701101
  50.7519427  69.5216619 114.5266165  52.3087700  67.8220974 115.7801117
  52.8339024  68.1608246 115.0550437  52.2210053  66.8867989 115.5964252
  36.4720700  70.0804498 120.1420999  37.2978720  69.7808270 119.7619642
  36.1214752  69.3112120 120.5910787  41.0015740  67.9834889 115.6877133
  41.1503860  68.6670354 115.0343806  41.8082183  67.9639979 116.2026589
  38.7568373  64.0100067 116.6938202  38.5114415  63.1062397 116.8918412
  38.9264287  64.0117217 115.7517680  38.0264020  59.7428424 114.1924363
  37.3333265  59.8172779 113.5364399  37.7815772  58.9788768 114.7145880
  44.5011145  70.4783020 113.1588880  43.9285112  71.0973207 112.7059352
  45.0743939  71.0282381 113.6928802  47.7208405  70.7620170 114.2897463
  48.6539078  70.6965732 114.4930338  47.6331618  71.5976437 113.8311995
  50.3496422  70.0786040 111.2501410  50.2710053  69.7445904 112.1437168
  51.1706089  70.5707808 111.2492882  44.8857944  61.8143832 110.5004933
  45.8317049  61.6850041 110.5693351  44.5072189  61.0758494 110.9774361
  43.0700861  59.7393809 110.4359818  42.1632316  59.4426922 110.5122532
  43.3476842  59.4423627 109.5694104  44.6862927  54.2830699 116.5904059
  43.8763655  53.9377784 116.9659305  45.3747344  53.9738242 117.1791671
  41.8399646  56.5980744 110.5771797  42.7018810  56.9235642 110.8367615
  42.0249990  55.8112240 110.0644863  49.9932282  55.4709271 117.7207020
  49.4130951  56.1294075 117.3385073  49.7268215  54.6486615 117.3094438
  48.7757160  57.6309361 116.7763368  47.8883015  57.9159012 116.5583563
  49.1911149  57.4703124 115.9290645  52.1271696  57.6555882 120.4917708
  52.9032086  58.1452334 120.7642324  51.4019830  58.0813936 120.9489577
  47.9200374  67.3954036 110.8711388  48.6236224  67.6004038 111.4869044
  47.1963022  67.9630797 111.1360472  48.7498184  63.1463897 116.9913659
  48.6933385  63.6032448 116.1521291  49.3026526  62.3854581 116.8136501
  52.5602990  58.9353629 117.8163778  52.3039924  58.5350264 118.6471986
  51.9355858  59.6497423 117.6913917  49.8287071  67.8336565 112.9209848
  50.6632675  67.4017763 112.7387323  49.6671414  67.6618578 113.8486743
  49.4832963  64.3368678 114.2866188  49.4281767  64.1712950 113.3454632
  48.8579018  65.0444711 114.4428377  42.7929089  53.8376787 113.8651506
  42.7807759  54.7818627 114.0219777  43.6852511  53.6546932 113.5710967
  51.1639307  74.1321339 110.6342708  50.2868773  74.0110140 110.2704954
  51.6397060  73.3407418 110.3821596  53.9094616  75.0685727 110.4359818
  53.0026071  74.7718839 110.5122532  54.1870597  74.7715545 109.5694104
  52.6793400  71.9272662 110.5771797  53.5412564  72.2527560 110.8367615
  52.8643744  71.1404158 110.0644863  53.6322843  69.1668705 113.8651506
  53.6201513  70.1110545 114.0219777  54.5246265  68.9838850 113.5710967
  35.6045783  34.4705989  99.7019270  34.9307482  34.7737686 100.3104228
  35.9911605  35.2735070  99.3524727  39.5702524  32.0491473 100.9759093
  40.2653428  32.6698166 101.1946408  39.9125674  31.1986824 101.2511471
  33.6617392  32.1553225  99.8834187  33.0891359  32.7743412  99.4304659
  34.2350186  32.7052586 100.4174109  36.8814652  32.4390375 101.0142769
  37.8145325  32.3735936 101.2175645  36.7937865  33.2746642 100.5557302
  39.5102669  31.7556245  97.9746717  39.4316300  31.4216109  98.8682475
  40.3312335  32.2478013  97.9738189  37.0806620  29.0724240  97.5956695
  37.7842471  29.2774243  98.2114351  36.3569269  29.6401002  97.8605779
  38.9893318  29.5106770  99.6455155  39.8238922  29.0787968  99.4632630
  38.8277661  29.3388783 100.5732050  47.6177593  40.0276421 109.7410332
  48.2556003  39.9083168 109.0373672  47.4998436  40.9757265 109.7998284
  40.2854115  41.8339325 105.6668747  39.7218980  41.7429262 104.8985035
  40.1706510  41.0139230 106.1471240  45.8653674  45.5010293 100.9783212
  45.2141653  46.0864373 100.5917226  46.6598036  46.0316488 101.0378250
  39.7909301  42.5899430 101.3770347  40.5640177  42.0428417 101.2383223
  40.1434700  43.4543679 101.5884808  42.1275579  38.7492096  99.0088797
  42.3801099  38.2273618  98.2472260  41.1900138  38.5858242  99.1115480
  47.1718861  37.7527875 106.8163540  47.9581951  37.3347298 106.4653957
  47.4357566  38.6573967 106.9845188  47.3428939  43.1900725 101.5152197
  46.7074772  43.2635351 102.2273101  47.0126345  43.7794324 100.8371276
  52.5727289  37.6903108 107.7196518  53.3052460  37.1202325 107.9534348
  51.8166644  37.3024708 108.1603024  41.8471867  40.6520202 101.2113172
  41.7308125  39.9765106 101.8794256  41.9574127  40.1652576 100.3945325
  44.1903408  40.1130349 104.9159861  43.8261615  39.5860970 105.6272782
  45.0470524  39.7228818 104.7426346  43.8308895  35.1420249  99.9121209
  43.9983298  36.0100485 100.2791680  43.6406064  35.3047531  98.9882499
  43.8098116  37.5977907 100.8967876  43.6897741  38.0434957 101.7353356
  43.1150704  37.9463224 100.3381414  41.5705008  50.3681548 104.5458007
  41.4929038  51.3189373 104.6246488  40.9666652  50.0227421 105.2032934
  49.5083182  38.0699380 101.7248210  50.4201038  38.3026766 101.5495908
  48.9992829  38.6536424 101.1623289  48.1152765  43.0525198 109.1161792
  47.4861627  43.2170912 108.4137860  47.7278427  43.4666808 109.8872756
  51.9941996  43.9879636 106.4706155  51.3093035  44.3678537 105.9203189
  52.0785846  44.5974963 107.2038103  43.6680726  42.7899606 106.3811877
  44.1319072  43.0687309 105.5916499  43.4037525  41.8883051 106.1984967
  42.6049613  38.9122759 103.1901442  43.3073656  39.3643802 103.6575368
  42.2730241  38.2706577 103.8181335  50.3638756  44.5111550 111.2423856
  51.1856200  44.1091738 110.9606538  50.3601159  44.4079785 112.1939972
  58.4544749  40.8550299 107.5908828  57.7008457  40.2857697 107.4352832
  58.5892290  40.8212963 108.5379462  43.8443377  45.7263701 103.2663547
  43.7089052  46.5715237 103.6948395  44.3853190  45.9282979 102.5029481
  37.2972775  43.2439139 103.8391472  37.8097295  44.0382390 103.9897037
  37.9495487  42.5465430 103.7725074  39.1067659  46.3604896 105.9214225
  39.2834288  47.2822860 105.7335209  39.9024493  46.0463315 106.3508605
  40.2298975  47.8783069 111.9224568  40.7806400  47.7500133 111.1501562
  39.3910451  48.1777958 111.5719461  35.2621691  41.5727794 104.6151043
  36.0996913  41.9824802 104.3984750  35.4399959  40.6327236 104.5851237
  47.1586123  39.2402874 100.3034876  46.6432747  40.0107479 100.5423263
  46.8863432  38.5668010 100.9267937  44.7433234  34.0852575 105.3620114
  43.8874831  33.6959425 105.1825753  45.1560186  34.1644536 104.5019900
  52.1320398  41.9935229 102.2388049  51.3549840  41.6546388 101.7943211
  52.8111879  41.9987852 101.5643014  46.9472427  37.1129966 102.1294657
  46.6422562  37.4276116 102.9804800  47.9002869  37.1911386 102.1721990
  45.3918858  43.2720190 103.7787611  44.8640220  42.5372949 103.4660848
  44.8906361  44.0494866 103.5327579  50.3711704  41.4669210 108.8954657
  49.7135379  42.1568472 108.9834786  51.1752104  41.8565642 109.2388644
  49.1817163  39.8213583 106.9458599  49.6949045  40.4543575 107.4480309
  49.8318387  39.2214778 106.5801959  40.4507173  35.9644317 100.1590108
  39.6144485  36.3019004 100.4799382  40.3111943  35.8293297  99.2217245
  43.5371459  41.0900400  96.7822584  42.6298520  40.8589653  96.9813733
  44.0342491  40.2938019  96.9696565  46.4439537  49.7997907  99.7019270
  45.7701236  50.1029604 100.3104228  46.8305359  50.6026987  99.3524727
  46.4433042  38.6954454 104.3219620  47.1904861  39.2075851 104.0126742
  46.7124631  38.3738507 105.1824013  44.7159692  41.1912995 101.3046574
  43.8070911  40.9072028 101.4019044  44.7454776  41.6112073 100.4449881
  49.9478959  44.8019584 105.0737742  49.4941287  43.9610494 105.1302932
  49.3172926  45.4380983 105.4112522  48.8911879  35.7311570 106.3038409
  48.1534636  35.2188957 106.6348652  49.1438653  35.2911952 105.4921686
  48.3911899  46.6396081 106.0087560  48.6834873  47.2001138 105.2899925
  48.9010519  46.9324642 106.7640719  44.4135780  42.7321738  98.6434653
  43.9755210  42.0157597  98.1840290  45.1546221  42.9597853  98.0819744
  41.2036946  37.4218675 105.1646748  40.3904812  37.7212846 105.5711940
  41.6995940  37.0274364 105.8821230  43.3545524  47.4176432 107.0981013
  43.3121703  47.6437278 106.1689545  44.2708223  47.1839807 107.2466814
  52.5308895  41.0078935 104.7010971  52.3926793  41.1980531 103.7732160
  52.1745113  41.7698318 105.1579022  52.5578274  43.0755462 109.7122243
  52.9914781  42.9830752 110.5605297  53.2709855  43.0512963 109.0742259
  41.4711325  44.2939461 106.8942976  42.2651923  43.7989781 106.6925551
  40.7603017  43.7657324 106.5310681  46.2906169  46.6757557 111.2455343
  46.3443191  47.2448493 112.0133059  45.4220951  46.8459442 110.8809380
  37.7794088  38.4382543 102.9702728  36.8491676  38.3766998 103.1872690
  37.8751560  37.9158496 102.1739370  53.4193824  43.1179163 112.2455128
  53.6129714  44.0224974 112.4914403  53.3194442  42.6586582 113.0793713
  44.0482601  44.8668483 110.5740813  43.9093686  44.4987267 111.4466751
  43.2597197  45.3816122 110.4024771  44.6430753  49.9677580 101.9166349
  44.8182508  49.4965623 102.7311972  43.9563541  50.5943346 102.1447610
  45.5987816  44.2450086 107.9629651  45.2637648  44.2050856 108.8587300
  45.0991761  43.5794802 107.4900061  48.5347007  41.5906120  98.2366710
  47.9176178  40.8652948  98.1399763  48.0663496  42.3515480  97.8933784
  39.2091838  53.1166942 108.6906209  39.4488436  53.7485466 109.3685228
  38.3661034  52.7654982 108.9771569  40.3245553  35.8091544  97.3588014
  39.4475020  35.6880345  96.9950261  40.8003306  35.0177623  97.1066903
  43.7219700  48.9246065 111.0947713  43.6489871  49.7301036 111.6067018
  43.2797093  49.1238031 110.2695735  43.5109479  48.1617835 104.6050535
  42.7277001  48.7039515 104.6988759  44.2102225  48.6791814 105.0044776
  54.6735887  39.6752830 108.8903032  54.6625763  40.5577545 108.5196965
  53.8053266  39.3224381 108.6957569  46.1818383  48.8232899 113.2505872
  46.8946356  49.4580364 113.1781774  45.6908412  48.9196765 112.4345874
  47.9035910  42.7284151 104.8223164  46.9692189  42.8485614 104.6527868
  48.0812579  41.8256618 104.5583174  51.2908462  38.5701471 105.3573198
  51.7568914  39.4029462 105.2833501  51.7415962  38.1046452 106.0618456
  49.3584693  44.9145292 102.3559350  49.6344537  44.8001887 103.2653224
  48.4889191  44.5162777 102.3171523  45.9938757  49.1631643 105.9992164
  46.1761151  48.3453299 106.4619916  46.8171743  49.3799335 105.5617054
  46.3280922  48.0899828 103.2607212  46.8568689  47.5792283 102.6477374
  46.5909142  47.7742358 104.1252745  39.6836670  49.1414945 106.0204988
  39.0147045  49.6261072 105.5369028  39.5449540  49.3884165 106.9348367
  43.8241939  51.1758688 112.6187646  44.3760247  51.3390310 113.3836732
  44.1648132  51.7663126 111.9467671  35.0524247  37.4033400 102.8000920
  35.3477688  36.4944078 102.7467974  34.1512283  37.3821139 102.4781922
  46.9610326  49.1240664 109.6051329  46.8361465  48.3230404 109.0962274
  47.6189417  49.6186857 109.1165298  49.0245234  46.9249684 111.2330879
  48.0775570  46.8055035 111.1609205  49.3728007  46.0372182 111.3157140
  46.0291668  46.7202400 107.4335231  45.8816630  45.7919107 107.6142801
  46.8545161  46.7422491 106.9492306  39.8953912  35.3720467 103.2915723
  40.2349984  35.9006388 102.5694331  40.3426032  35.7100873 104.0674290
  49.6325790  47.5430959 108.5200104  50.5572337  47.3373820 108.3824555
  49.4641093  47.2947360 109.4289445  41.8822059  33.8695089 101.4909016
  42.6030422  34.2476341 100.9872733  41.2587363  34.5883966 101.5943994
  46.0253182  34.5740238 102.4267348  46.2416796  35.4564876 102.1256176
  45.5447249  34.1826451 101.6972990  49.4221106  48.0616626 103.8762195
  49.5957983  47.4963049 103.1236047  49.9149997  48.8617521 103.6941685
  55.2760497  40.8253049 105.4952495  55.7191643  40.0760374 105.0971618
  54.3987007  40.8163186 105.1126227  50.4096278  47.3783391 100.9759093
  51.1047183  47.9990083 101.1946408  50.7519428  46.5278742 101.2511471
  52.3087701  44.8283096 102.5046424  52.8339025  45.1670369 101.7795744
  52.2210054  43.8930111 102.3209559  43.9928362  50.8955079 106.8641677
  43.5533352  50.4031458 107.5574534  44.7436479  50.3528047 106.6233752
  36.4720701  47.0866620 106.8666305  37.2978721  46.7870392 106.4864949
  36.1214753  46.3174243 107.3156094  41.4402234  46.4393088 108.9363979
  40.8182244  45.7763794 108.6366207  42.1107101  46.4654220 108.2537627
  41.0015741  44.9897012 102.4122439  41.1503862  45.6732476 101.7589112
  41.8082185  44.9702102 102.9271895  54.8193362  42.2958287 107.8874942
  55.6540253  42.7348092 108.0512503  54.9552490  41.8196941 107.0683188
  38.7568374  41.0162189 103.4183508  38.5114416  40.1124519 103.6163719
  38.9264289  41.0179340 102.4762986  38.0264022  36.7490547 100.9169670
  37.3333267  36.8234902 100.2609706  37.7815774  35.9850891 101.4391187
  44.5011147  47.4845142  99.8834187  43.9285114  48.1035329  99.4304659
  45.0743940  48.0344504 100.4174109  47.7208406  47.7682292 101.0142769
  48.6539080  47.7027854 101.2175645  47.6331619  48.6038559 100.5557302
  50.3496423  47.0848163  97.9746717  50.2710055  46.7508026  98.8682475
  51.1706090  47.5769931  97.9738189  53.0474614  39.9509902 111.1823035
  53.0150934  39.0125903 111.3682719  53.6575238  40.0293939 110.4488860
  44.8857945  38.8205955  97.2250239  45.8317050  38.6912163  97.2938657
  44.5072190  38.0820617  97.7019668  58.8651164  41.0125909 110.3229072
  59.5954553  40.7511197 110.8836775  58.2558110  40.2754631 110.3631140
  56.9466461  39.1533771 110.9203523  56.2199625  39.0189736 110.3120015
  56.5313748  39.4610600 111.7260241  43.0700862  36.7455931  97.1605125
  42.1632318  36.4489044  97.2367838  43.3476843  36.4485750  96.2939411
  44.6862928  31.2892821 103.3149366  43.8763656  30.9439906 103.6904612
  45.3747345  30.9800365 103.9036977  41.8399647  33.6042867  97.3017104
  42.7018811  33.9297765  97.5612921  42.0249991  32.8174363  96.7890170
  49.9932283  32.4771393 104.4452327  49.4130952  33.1356197 104.0630379
  49.7268216  31.6548738 104.0339744  48.7757161  34.6371483 103.5008675
  47.8883016  34.9221134 103.2828870  49.1911151  34.4765247 102.6535952
  52.1271698  34.6618004 107.2163014  52.9032088  35.1514457 107.4887631
  51.4019832  35.0876059 107.6734884  54.5644256  35.3745624 108.2736955
  55.1588747  35.1341360 107.5630263  54.6370840  34.6552754 108.9010491
  36.7841412  49.2179235 108.5880120  36.6495880  48.4579636 108.0218118
  36.3673474  49.9420134 108.1208909  47.9200375  44.4016158  97.5956695
  48.6236225  44.6066161  98.2114351  47.1963024  44.9692920  97.8605779
  48.7498185  40.1526019 103.7158965  48.6933387  40.6094571 102.8766598
  49.3026528  39.3916704 103.5381808  52.5602991  35.9415751 104.5409085
  52.3039925  35.5412387 105.3717292  51.9355859  36.6559545 104.4159224
  56.8715329  38.6811825 107.0480376  56.3114887  38.7505014 107.8211938
  56.2658832  38.5052809 106.3279872  39.9410538  50.1148552 108.7998562
  39.8242922  51.0593984 108.6977253  39.1202984  49.8122113 109.1884362
  49.8287072  44.8398687  99.6455155  50.6632676  44.4079886  99.4632630
  49.6671415  44.6680701 100.5732050  49.4832964  41.3430801 101.0111494
  49.4281768  41.1775072 100.0699939  48.8579020  42.0506834 101.1673684
  42.7929090  30.8438910 100.5896813  42.7807760  31.7880750 100.7465084
  43.6852512  30.6609055 100.2956274  40.9665052  50.7676814 112.0154491
  41.8692299  50.8000424 112.3320986  40.7402422  49.8377264 112.0300827
  42.7218654  49.5207800 108.6764569  41.7714285  49.5209662 108.5628942
  43.0251140  48.7740535 108.1600604  58.4571347  55.3568338 109.7410332
  59.0949757  55.2375086 109.0373672  58.3392190  56.3049182 109.7998284
  55.2661054  55.3095767 109.6771857  54.9279565  55.1936831 108.7892391
  56.1350822  54.9086932 109.6572863  51.1247869  57.1631243 105.6668747
  50.5612735  57.0721180 104.8985035  51.0100264  56.3431147 106.1471240
  55.7480837  56.4630618 115.6358062  55.7369477  56.0683417 114.7638566
  55.9101476  55.7296691 116.2291834  48.6712301  58.6582435 108.5052968
  49.4633593  58.3173259 108.0899267  48.9108951  58.7677410 109.4255121
  56.7047428  60.8302211 100.9783212  56.0535408  61.4156291 100.5917226
  57.4991791  61.3608406 101.0378250  50.6303055  57.9191348 101.3770347
  51.4033931  57.3720335 101.2383223  50.9828454  58.7835597 101.5884808
  52.4688098  59.2467730 114.5837246  52.1777964  60.1513361 114.4683912
  53.1045082  59.2884258 115.2981316  53.3944305  56.6244579 111.1738606
  53.9907877  56.4000601 110.4595569  53.4519276  55.8829324 111.7764054
  52.9669333  54.0784014  99.0088797  53.2194854  53.5565535  98.2472260
  52.0293892  53.9150159  99.1115480  58.0112616  53.0819792 106.8163540
  58.7975705  52.6639215 106.4653957  58.2751320  53.9865885 106.9845188
  58.1822693  58.5192643 101.5152197  57.5468526  58.5927269 102.2273101
  57.8520100  59.1086241 100.8371276  63.4121043  53.0195026 107.7196518
  64.1446215  52.4494242 107.9534348  62.6560399  52.6316626 108.1603024
  52.6865622  55.9812120 101.2113172  52.5701880  55.3057023 101.8794256
  52.7967882  55.4944494 100.3945325  55.0297163  55.4422267 104.9159861
  54.6655370  54.9152888 105.6272782  55.8864279  55.0520736 104.7426346
  60.9346463  46.7316600 112.1791127  60.6029788  47.6012011 111.9552342
  60.3392077  46.4152884 112.8585157  54.6702650  50.4712167  99.9121209
  54.8377052  51.3392403 100.2791680  54.4799819  50.6339448  98.9882499
  57.4277983  58.9329146 111.5787040  57.1278706  59.8354184 111.4702847
  57.0829042  58.6661329 112.4308193  50.8790464  55.3842942 107.6123744
  49.9540961  55.2519157 107.8201436  51.1274878  56.1637162 108.1093687
  60.8275127  51.4511686 109.2584477  59.9192004  51.3827094 108.9643238
  60.7762722  51.9283631 110.0866303  54.6491871  52.9269824 100.8967876
  54.5291496  53.3726875 101.7353356  53.9544459  53.2755142 100.3381414
  48.2399275  55.0276216 108.4467533  48.3691657  55.2810695 109.3606945
  47.5596727  55.6203924 108.1272188  52.4098763  65.6973466 104.5458007
  52.3322792  66.6481291 104.6246488  51.8060406  65.3519338 105.2032934
  54.9015992  52.8701331 117.2019374  54.1249327  53.4295252 117.1922239
  55.5406556  53.3558114 117.7234244  62.6936773  49.6528124 111.0362351
  62.0511153  49.9460657 110.3902146  62.1891702  49.5381045 111.8415548
  60.3476937  53.3991297 101.7248210  61.2594793  53.6318684 101.5495908
  59.8386584  53.9828342 101.1623289  53.1562365  55.6786785 116.7637341
  53.8977049  56.2171829 116.4872165  52.4499350  56.3053074 116.9208893
  58.6317704  57.8215925 115.3609503  59.0401060  57.3798336 114.6164135
  57.9094966  57.2468553 115.6143696  54.9848774  52.7588532 112.7343060
  55.8309970  53.1827946 112.8777709  54.9247412  52.1022156 113.4281623
  58.9546519  58.3817116 109.1161792  58.3255381  58.5462830 108.4137860
  58.5672181  58.7958725 109.8872756  62.8335751  59.3171554 106.4706155
  62.1486789  59.6970455 105.9203189  62.9179600  59.9266880 107.2038103
  58.1348220  50.4192900 114.3924233  57.8909152  51.1734961 113.8558509
  58.4108150  50.7978248 115.2271480  60.0886683  56.9631513 113.0701499
  60.3003578  57.6063273 112.3935880  60.0416431  56.1293829 112.6023429
  57.6912912  49.5749333 109.9738071  56.8297391  49.8730587 110.2654809
  57.7175346  49.7919732 109.0419104  54.5074481  58.1191524 106.3811877
  54.9712826  58.3979227 105.5916499  54.2431279  57.2174969 106.1984967
  51.3998562  57.6663005 109.3191640  51.9699919  58.0950274 108.6809125
  51.9906674  57.3845590 110.0175826  53.4443367  54.2414676 103.1901442
  54.1467410  54.6935720 103.6575368  53.1123995  53.5998495 103.8181335
  51.8923729  52.8326433 117.5652651  51.2622389  53.5142714 117.7988048
  51.7859816  52.7209515 116.6205790  47.1868701  52.4998229 108.4918576
  46.3967755  52.7555758 108.0158686  47.6779948  53.3146567 108.5970616
  61.2032511  59.8403468 111.2423856  62.0249954  59.4383655 110.9606538
  61.1994913  59.7371702 112.1939972  49.1383446  52.8642808 105.4502052
  48.3414610  52.9761502 105.9685548  48.9109039  53.2029460 104.5842943
  54.9689114  59.3887511 113.3984567  55.0333546  59.8507919 114.2342739
  54.2600038  58.7584876 113.5266877  45.4706404  52.7528719 110.9233566
  45.7214442  53.6375729 111.1891142  46.0065952  52.5733321 110.1508658
  69.2938504  56.1842217 107.5908828  68.5402212  55.6149615 107.4352832
  69.4286045  56.1504881 108.5379462  54.6837132  61.0555619 103.2663547
  54.5482806  61.9007155 103.6948395  55.2246944  61.2574897 102.5029481
  48.1366529  58.5731057 103.8391472  48.6491050  59.3674307 103.9897037
  48.7889242  57.8757347 103.7725074  49.9461414  61.6896813 105.9214225
  50.1228042  62.6114778 105.7335209  50.7418247  61.3755232 106.3508605
  54.0872432  48.5505078 117.5198159  54.8282146  49.1512231 117.4402621
  54.3190355  47.8082716 116.9616202  49.2313770  53.7361445 115.7976389
  49.1167285  52.8346702 116.0983488  48.3758288  53.9825142 115.4461205
  56.3105608  61.6779185 117.3963889  55.8669462  60.8915564 117.0784794
  56.9722822  61.8658336 116.7307780  51.0692729  63.2074987 111.9224568
  51.6200154  63.0792050 111.1501562  50.2304205  63.5069876 111.5719461
  58.4086846  61.9581985 115.4245291  58.3905321  62.7790866 114.9325560
  59.3306766  61.8336061 115.6495432  54.8659900  59.4726115 116.2668799
  55.3988237  58.7114403 116.0368107  54.3373981  59.1799767 117.0092953
  58.0329595  44.5786181 111.7962441  57.6893865  45.4687822 111.7201551
  58.4008558  44.3887838 110.9332026  46.1015446  56.9019711 104.6151043
  46.9390668  57.3116720 104.3984750  46.2793713  55.9619153 104.5851237
  57.9979878  54.5694792 100.3034876  57.4826501  55.3399397 100.5423263
  57.7257186  53.8959928 100.9267937  55.5826989  49.4144493 105.3620114
  54.7268585  49.0251343 105.1825753  55.9953941  49.4936453 104.5019900
  57.1126136  46.9490836 109.7611674  56.6090931  46.9120971 108.9479479
  57.4056742  47.8583579 109.8208331  53.3569021  47.0329566 108.7677856
  54.2222018  46.8372374 108.4083745  53.4246530  46.8039917 109.6947212
  62.9714152  57.3227147 102.2388049  62.1943595  56.9838306 101.7943211
  63.6505633  57.3279770 101.5643014  57.7866181  52.4421884 102.1294657
  57.4816317  52.7568033 102.9804800  58.7396623  52.5203304 102.1721990
  56.2312613  58.6012107 103.7787611  55.7033974  57.8664867 103.4660848
  55.7300116  59.3786784 103.5327579  61.2105459  56.7961128 108.8954657
  60.5529133  57.4860389 108.9834786  62.0145858  57.1857560 109.2388644
  50.9631341  49.2631774 106.1394222  51.5375092  49.0406955 105.4067415
  51.5502323  49.3320468 106.8922824  60.0210918  55.1505501 106.9458599
  60.5342799  55.7835492 107.4480309  60.6712142  54.5506696 106.5801959
  51.2900928  51.2936235 100.1590108  50.4538240  51.6310921 100.4799382
  51.1505697  51.1585214  99.2217245  53.2654008  46.1373023 104.8669292
  52.6118421  45.8222040 104.2425907  53.2234482  45.5148763 105.5929115
  54.3765213  56.4192318  96.7822584  53.4692275  56.1881571  96.9813733
  54.8736245  55.6229937  96.9696565  57.2833292  65.1289825  99.7019270
  56.6094991  65.4321522 100.3104228  57.6699114  65.9318905  99.3524727
  56.4991749  52.6254956 109.1916939  55.5814310  52.8469903 109.0338628
  56.9151892  52.7001267 108.3328647  57.2826796  54.0246372 104.3219620
  58.0298615  54.5367769 104.0126742  57.5518386  53.7030424 105.1824013
  55.5553447  56.5204912 101.3046574  54.6464666  56.2363945 101.4019044
  55.5848530  56.9403991 100.4449881  60.7872714  60.1311502 105.0737742
  60.3335041  59.2902412 105.1302932  60.1566681  60.7672900 105.4112522
  59.7305634  51.0603488 106.3038409  58.9928390  50.5480874 106.6348652
  59.9832407  50.6203870 105.4921686  59.2305653  61.9687999 106.0087560
  59.5228628  62.5293056 105.2899925  59.7404274  62.2616560 106.7640719
  59.8317261  43.8379740 106.8980178  60.1376138  42.9777103 106.6106093
  60.5569866  44.4297360 106.6979172  46.1241617  54.2410427 105.2861776
  45.9266017  53.6479787 104.5612843  45.5688281  53.9362637 106.0037715
  54.1038341  54.1333533 107.4056369  54.1586950  53.1807369 107.3298846
  53.2929543  54.2892972 107.8897668  55.2529534  58.0613656  98.6434653
  54.8148964  57.3449515  98.1840290  55.9939975  58.2889771  98.0819744
  52.0430700  52.7510593 105.1646748  51.2298566  53.0504763 105.5711940
  52.5389695  52.3566282 105.8821230  54.1939278  62.7468350 107.0981013
  54.1515457  62.9729196 106.1689545  55.1101977  62.5131724 107.2466814
  57.6404912  53.2152417 113.9961642  57.9954300  53.4423890 114.8556108
  58.2877043  53.5470794 113.3738897  63.3702649  56.3370853 104.7010971
  63.2320548  56.5272449 103.7732160  63.0138868  57.0990236 105.1579022
  51.5344775  50.3228948 110.7807983  52.1744155  50.1817707 110.0830947
  50.7022306  50.0363462 110.4046585  63.3972029  58.4047380 109.7122243
  63.8308535  58.3122669 110.5605297  64.1103609  58.3804881 109.0742259
  52.3105079  59.6231379 106.8942976  53.1045678  59.1281699 106.6925551
  51.5996772  59.0949242 106.5310681  57.1299924  62.0049474 111.2455343
  57.1836946  62.5740411 112.0133059  56.2614705  62.1751359 110.8809380
  48.6187843  53.7674460 102.9702728  47.6885431  53.7058916 103.1872690
  48.7145315  53.2450413 102.1739370  48.5373392  50.2929273 105.5580970
  48.7980209  51.2074607 105.4490130  49.3590564  49.8253716 105.7077583
  50.0098317  51.7067030 112.7279795  50.6821370  51.4984393 112.0792443
  49.1828104  51.5089116 112.2885027  64.2587578  58.4471081 112.2455128
  64.4523468  59.3516891 112.4914403  64.1588196  57.9878500 113.0793713
  55.9123889  48.3328971 114.7445455  55.2651804  49.0318921 114.6509932
  56.6824904  48.7665115 115.1121704  59.3202687  58.5977824 117.8196009
  59.1688193  58.3688375 116.9026092  59.3107366  59.5548425 117.8327354
  56.0888023  56.1709736 112.8042275  57.0180083  56.3220896 112.6311242
  55.6679053  56.2593757 111.9490922  54.8876355  60.1960401 110.5740813
  54.7487441  59.8279185 111.4466751  54.0990951  60.7108040 110.4024771
  55.4824507  65.2969497 101.9166349  55.6576263  64.8257540 102.7311972
  54.7957295  65.9235263 102.1447610  56.4381570  59.5742003 107.9629651
  56.1031403  59.5342773 108.8587300  55.9385516  58.9086719 107.4900061
  50.4125814  54.9809633 113.4882232  50.2745612  54.2489872 114.0893771
  51.3230738  54.8918534 113.2066419  59.3740762  56.9198038  98.2366710
  58.7569933  56.1944866  98.1399763  58.9057250  57.6807398  97.8933784
  53.0408115  54.6929593 112.9765911  53.7507733  54.0522785 112.9352530
  52.9977423  54.9442488 113.8992092  61.0294894  61.6296946 115.8972491
  60.9707440  60.9456166 115.2303074  61.4314412  62.3715936 115.4453117
  51.7537049  51.6794811 114.7961551  51.2174406  51.2285549 115.4483147
  51.1653757  51.8140720 114.0532015  50.0485592  68.4458860 108.6906209
  50.2882191  69.0777384 109.3685228  49.2054789  68.0946900 108.9771569
  51.1639308  51.1383462  97.3588014  50.2868774  51.0172263  96.9950261
  51.6397061  50.3469540  97.1066903  61.0312301  59.5936530 114.1286470
  60.1439080  59.2562452 114.2512869  61.6010852  58.8619561 114.3655236
  42.6841448  55.9260622 107.4529522  43.3712488  55.6122352 106.8650537
  42.5289577  56.8301986 107.1796773  47.4876170  50.8150818 111.8814545
  47.4034359  50.2076488 111.1464955  46.6658877  51.3059837 111.8824042
  54.5613454  64.2537982 111.0947713  54.4883626  65.0592954 111.6067018
  54.1190847  64.4529948 110.2695735  54.3503234  63.4909752 104.6050535
  53.5670756  64.0331433 104.6988759  55.0495979  64.0083732 105.0044776
  57.6599884  49.3004382 107.2484740  58.1568584  48.5474344 106.9285811
  56.8886866  49.3368699 106.6827950  65.5129641  55.0044747 108.8903032
  65.5019518  55.8869463 108.5196965  64.6447021  54.6516298 108.6957569
  57.0212138  64.1524816 113.2505872  57.7340110  64.7872281 113.1781774
  56.5302166  64.2488682 112.4345874  58.7429665  58.0576069 104.8223164
  57.8085943  58.1777532 104.6527868  58.9206333  57.1548536 104.5583174
  54.2434853  51.4421765 106.9756425  53.8732640  50.8892805 107.6637331
  54.7393945  50.8379898 106.4231425  62.1302216  53.8993388 105.3573198
  62.5962668  54.7321380 105.2833501  62.5809717  53.4338370 106.0618456
  52.0724051  61.9019260 114.0711443  52.7733511  62.5355743 114.2240837
  51.6019166  62.2433991 113.3107082  60.1978447  60.2437210 102.3559350
  60.4738291  60.1293804 103.2653224  59.3282946  59.8454695 102.3171523
  60.1018879  46.2673975 109.3964099  59.1881959  46.4978202 109.5646306
  60.5311980  46.3512419 110.2478132  59.8725337  54.4563867 111.8963993
  59.2196788  54.7039775 111.2416446  60.2505717  53.6428006 111.5626471
  56.8332511  64.4923561 105.9992164  57.0154906  63.6745216 106.4619916
  57.6565497  64.7091253 105.5617054  57.1674677  63.4191746 103.2607212
  57.6962443  62.9084200 102.6477374  57.4302896  63.1034276 104.1252745
  55.9212910  55.1983678 118.3830030  55.2453547  55.0977808 119.0532406
  56.7440544  55.0422892 118.8466028  47.6691769  61.4355615 111.0042546
  48.2545206  60.6899303 111.1370450  47.4716608  61.7459572 111.8879209
  50.5230425  64.4706862 106.0204988  49.8540800  64.9552990 105.5369028
  50.3843294  64.7176083 106.9348367  42.2609424  54.0061215 109.7246989
  42.2993524  53.4724806 110.5184107  41.7549717  53.4796421 109.1057966
  54.6635693  66.5050606 112.6187646  55.2154001  66.6682227 113.3836732
  55.0041887  67.0955044 111.9467671  49.6400186  48.8525756 113.2209531
  49.7041513  49.7140587 112.8086929  49.5767307  48.2399757 112.4881890
  45.8918002  52.7325317 102.8000920  46.1871443  51.8235996 102.7467974
  44.9906037  52.7113057 102.4781922  57.8004080  64.4532581 109.6051329
  57.6755220  63.6522321 109.0962274  58.4583172  64.9478775 109.1165298
  49.4212249  50.8081314 108.7828469  48.6998834  51.4217282 108.6435942
  50.2105504  51.3439079 108.7045115  59.8638989  62.2541601 111.2330879
  58.9169324  62.1346953 111.1609205  60.2121762  61.3664100 111.3157140
  52.2238562  48.1435740 115.0569120  52.7472964  48.3898037 115.8195430
  52.0050895  48.9755775 114.6372258  47.6205843  50.4139415 102.9240245
  47.2918549  49.5336794 102.7415351  47.9745214  50.3587084 103.8116635
  56.8685422  62.0494318 107.4335231  56.7210385  61.1211025 107.6142801
  57.6938916  62.0714408 106.9492306  50.7347666  50.7012385 103.2915723
  51.0743739  51.2298306 102.5694331  51.1819787  51.0392791 104.0674290
  60.4719544  62.8722876 108.5200104  61.3966091  62.6665738 108.3824555
  60.3034847  62.6239278 109.4289445  53.4291107  49.0849436 112.7418791
  53.0887928  48.2857249 113.1439471  52.7230114  49.3851146 112.1695624
  54.0807579  46.1698748 111.1946114  54.9033648  45.6959226 111.0725004
  54.3245643  46.9489232 111.6944800  52.7215814  49.1987006 101.4909016
  53.4424176  49.5768259 100.9872733  52.0981118  49.9175883 101.5943994
  56.8646936  49.9032155 102.4267348  57.0810551  50.7856793 102.1256176
  56.3841004  49.5118369 101.6972990  51.6046158  52.8617869 109.0038093
  51.4590739  53.1758172 109.8962374  51.1271361  53.4802769 108.4508991
  53.4642541  49.8520417 109.0518982  53.4504109  48.9561510 108.7151280
  54.1814969  49.8591080 109.6857268  55.3168671  50.2857757 111.0972110
  55.0586449  51.2074827 111.0956440  54.7853712  49.8888191 111.7872574
  60.2614860  63.3908544 103.8762195  60.4351738  62.8254966 103.1236047
  60.7543751  64.1909439 103.6941685  46.0791820  55.4023213 111.9425754
  45.5345288  56.1783021 112.0746028  46.9571170  55.7494017 111.7844875
  52.8679437  48.7334797 104.3206552  52.9895348  47.8051443 104.5197440
  52.5781479  48.7473483 103.4084868  55.7370627  46.4189707 107.4573272
  55.7592324  46.4829040 106.5025252  56.1538686  45.5794216 107.6513778
  66.1154251  56.1544967 105.4952495  66.5585397  55.4052292 105.0971618
  65.2380762  56.1455103 105.1126227  61.2490033  62.7075308 100.9759093
  61.9440937  63.3282001 101.1946408  61.5913183  61.8570660 101.2511471
  46.8657842  54.5293109 114.8355911  46.1239578  54.6775745 115.4220541
  46.5450586  54.7901375 113.9722660  63.1481456  60.1575014 102.5046424
  63.6732780  60.4962287 101.7795744  63.0603808  59.2222029 102.3209559
  54.8101505  64.0709087 114.6336301  55.1188631  63.8258234 115.5059000
  55.6076987  64.2755726 114.1455171  54.8322117  66.2246997 106.8641677
  54.3927107  65.7323376 107.5574534  55.5830234  65.6819965 106.6233752
  47.3114456  62.4158538 106.8666305  48.1372475  62.1162310 106.4864949
  46.9608508  61.6466160 107.3156094  52.2795989  61.7685006 108.9363979
  51.6575998  61.1055711 108.6366207  52.9500856  61.7946138 108.2537627
  45.5123061  60.3344864 107.8255239  44.6754969  59.9067039 107.6439240
  45.4846706  60.5277308 108.7626030  62.9573237  57.6400384 115.1230351
  63.0071242  57.4750391 116.0645873  62.8487160  56.7727643 114.7328231
  51.8409496  60.3188930 102.4122439  51.9897616  61.0024394 101.7589112
  52.6475939  60.2994020 102.9271895  60.2476999  53.6231312 116.4389657
  61.1486862  53.4837777 116.1473655  60.3224974  53.7885767 117.3787835
  54.5819805  50.9998167 115.2842844  53.7123114  51.2931733 115.0125432
  54.8179285  51.5838612 116.0050107  64.4591434  60.0597325 115.3672372
  64.1676242  60.4227306 116.2035833  63.8463565  59.3464334 115.1885704
  65.6587116  57.6250205 107.8874942  66.4934007  58.0640009 108.0512503
  65.7946245  57.1488858 107.0683188  62.7078622  55.1829940 113.8352430
  63.1832744  55.3757586 113.0271281  61.7844187  55.2389126 113.5895814
  49.5962129  56.3454107 103.4183508  49.3508171  55.4416437 103.6163719
  49.7658043  56.3471258 102.4762986  57.2858838  47.2177784 112.8008264
  57.8040782  47.9538810 112.4754753  56.9313971  47.5241777 113.6355023
  48.8657776  52.0782465 100.9169670  48.1727021  52.1526820 100.2609706
  48.6209528  51.3142808 101.4391187  57.5371433  43.6378066 108.3209161
  57.8173186  42.9701255 108.9469587  58.3222040  43.8307162 107.8083824
  55.3404901  62.8137060  99.8834187  54.7678868  63.4327247  99.4304659
  55.9137695  63.3636422 100.4174109  61.4080291  52.0595700 112.0680736
  62.3597714  52.1593798 112.0892960  61.2383741  51.2673969 112.5778820
  59.4294670  49.1451283 112.2540137  58.8344603  49.4256296 111.5586625
  59.1444367  49.6345184 113.0256878  58.5602161  63.0974210 101.0142769
  59.4932834  63.0319772 101.2175645  58.4725374  63.9330477 100.5557302
  61.1890178  62.4140080  97.9746717  61.1103809  62.0799944  98.8682475
  62.0099844  62.9061848  97.9738189  63.8868369  55.2801820 111.1823035
  63.8544689  54.3417820 111.3682719  64.4968992  55.3585856 110.4488860
  55.7251700  54.1497873  97.2250239  56.6710804  54.0204081  97.2938657
  55.3465945  53.4112535  97.7019668  64.0362857  52.0712863 111.2281319
  63.5201906  51.2871320 111.0411247  64.9202806  51.7431580 111.3927838
  61.6973584  45.8153879 107.1877131  61.4998405  45.5068967 108.0720463
  62.3073290  46.5415518 107.3175061  69.7044919  56.3417827 110.3229072
  70.4348307  56.0803115 110.8836775  69.0951864  55.6046549 110.3631140
  67.7860216  54.4825689 110.9203523  67.0593379  54.3481654 110.3120015
  67.3707503  54.7902518 111.7260241  55.6090392  58.2015619 118.6850896
  56.5293402  58.3794218 118.8790943  55.5739975  57.2571664 118.5330596
  53.9094617  52.0747849  97.1605125  53.0026072  51.7780962  97.2367838
  54.1870598  51.7777667  96.2939411  44.8272557  53.3954213 107.6104171
  44.5075342  52.5419521 107.3178545  44.2805985  53.6102791 108.3662138
  48.6052465  56.1116654 111.3273678  48.8238475  57.0433761 111.3461711
  49.0178239  55.7524628 112.1128481  55.5256683  46.6184739 103.3149366
  54.7157411  46.2731824 103.6904612  56.2141099  46.3092283 103.9036977
  57.4547231  45.6962786 104.9373663  58.0078269  46.1158239 105.5963686
  57.6917317  44.7698534 104.9796619  52.6793401  48.9334784  97.3017104
  53.5412565  49.2589683  97.5612921  52.8643746  48.1466280  96.7890170
  44.6960817  57.0157124 109.5797293  44.0024289  56.6011077 109.0667247
  45.4433808  57.0577661 108.9830711  60.8326038  47.8063311 104.4452327
  60.2524707  48.4648115 104.0630379  60.5661971  46.9840655 104.0339744
  59.2829604  47.2068368 106.6473647  59.7829383  47.3184903 105.8387966
  59.9265212  46.9029421 107.2874456  53.3411600  55.1146998 119.5341488
  52.8578682  55.9147358 119.7405377  53.4272539  55.1254943 118.5808932
  46.6097560  56.9475378 107.4563307  46.5868248  57.0463065 106.5045191
  46.9198196  57.7940529 107.7780474  49.2684938  59.0051533 111.5709922
  50.2228191  58.9735475 111.5039853  49.0697461  58.5442157 112.3860148
  49.8584320  57.5752649 114.1380720  50.6777209  58.0696728 114.1615557
  50.1321127  56.6584617 114.1098287  59.6150916  49.9663401 103.5008675
  58.7276771  50.2513052 103.2828870  60.0304905  49.8057165 102.6535952
  62.9665452  49.9909922 107.2163014  63.7425842  50.4806375 107.4887631
  62.2413586  50.4167976 107.6734884  65.4038011  50.7037541 108.2736955
  65.9982501  50.4633277 107.5630263  65.4764594  49.9844672 108.9010491
  47.6235166  64.5471152 108.5880120  47.4889634  63.7871553 108.0218118
  47.2067229  65.2712052 108.1208909  58.7594129  59.7308076  97.5956695
  59.4629980  59.9358078  98.2114351  58.0356778  60.2984838  97.8605779
  59.5891940  55.4817937 103.7158965  59.5327141  55.9386489 102.8766598
  60.1420282  54.7208622 103.5381808  63.3996746  51.2707669 104.5409085
  63.1433680  50.8704305 105.3717292  62.7749614  51.9851463 104.4159224
  67.7109083  54.0103742 107.0480376  67.1508641  54.0796932 107.8211938
  67.1052587  53.8344727 106.3279872  50.7804292  65.4440469 108.7998562
  50.6636676  66.3885902 108.6977253  49.9596739  65.1414031 109.1884362
  60.6680827  60.1690605  99.6455155  61.5026431  59.7371804  99.4632630
  60.5065170  59.9972619 100.5732050  60.3226719  56.6722718 101.0111494
  60.2675523  56.5066990 100.0699939  59.6972774  57.3798751 101.1673684
  45.1119234  51.9090783 114.8372917  45.7578098  51.3989737 115.3260142
  44.9036385  52.6459464 115.4116342  53.6322844  46.1730827 100.5896813
  53.6201514  47.1172667 100.7465084  54.5246266  45.9900973 100.2956274
  51.8058806  66.0968731 112.0154491  52.7086053  66.1292341 112.3320986
  51.5796176  65.1669182 112.0300827  53.5612408  64.8499718 108.6764569
  52.6108039  64.8501579 108.5628942  53.8644895  64.1032452 108.1600604
  57.4474964  42.7673604 104.8442750  56.6807360  42.2132091 104.9899432
  57.8585669  42.8395473 105.7056901  61.9641624  72.4923161 105.6668747
  61.4006489  72.4013098 104.8985035  61.8494019  71.6723065 106.1471240
  59.5106056  73.9874352 108.5052968  60.3027348  73.6465177 108.0899267
  59.7502706  74.0969327 109.4255121  67.5441183  76.1594128 100.9783212
  66.8929162  76.7448209 100.5917226  68.3385545  76.6900323 101.0378250
  61.4696810  73.2483266 101.3770347  62.2427686  72.7012253 101.2383223
  61.8222209  74.1127515 101.5884808  63.8063088  69.4075932  99.0088797
  64.0588608  68.8857453  98.2472260  62.8687647  69.2442077  99.1115480
  68.8506370  68.4111710 106.8163540  69.6369460  67.9931133 106.4653957
  69.1145075  69.3157802 106.9845188  69.0216448  73.8484560 101.5152197
  68.3862281  73.9219187 102.2273101  68.6913854  74.4378159 100.8371276
  63.5259376  71.3104038 101.2113172  63.4095634  70.6348941 101.8794256
  63.6361636  70.8236412 100.3945325  65.8690917  70.7714185 104.9159861
  65.5049124  70.2444806 105.6272782  66.7258033  70.3812654 104.7426346
  65.5096404  65.8004084  99.9121209  65.6770807  66.6684321 100.2791680
  65.3193573  65.9631366  98.9882499  61.7184219  70.7134860 107.6123744
  60.7934715  70.5811074 107.8201436  61.9668632  71.4929079 108.1093687
  65.4885625  68.2561742 100.8967876  65.3685250  68.7018793 101.7353356
  64.7938213  68.6047060 100.3381414  59.0793030  70.3568134 108.4467533
  59.2085411  70.6102613 109.3606945  58.3990481  70.9495842 108.1272188
  71.1870691  68.7283215 101.7248210  72.0988547  68.9610602 101.5495908
  70.6780338  69.3120259 101.1623289  68.5306666  64.9041251 109.9738071
  67.6691145  65.2022505 110.2654809  68.5569101  65.1211650 109.0419104
  65.3468235  73.4483442 106.3811877  65.8106581  73.7271145 105.5916499
  65.0825034  72.5466886 106.1984967  64.2837121  69.5706594 103.1901442
  64.9861165  70.0227638 103.6575368  63.9517750  68.9290413 103.8181335
  58.0262455  67.8290147 108.4918576  57.2361509  68.0847675 108.0158686
  58.5173703  68.6438485 108.5970616  59.9777201  68.1934726 105.4502052
  59.1808364  68.3053420 105.9685548  59.7502793  68.5321378 104.5842943
  56.3100158  68.0820637 110.9233566  56.5608197  68.9667647 111.1891142
  56.8459707  67.9025239 110.1508658  65.5230886  76.3847537 103.2663547
  65.3876561  77.2299072 103.6948395  66.0640699  76.5866814 102.5029481
  58.9760283  73.9022975 103.8391472  59.4884804  74.6966225 103.9897037
  59.6282996  73.2049265 103.7725074  60.7855168  77.0188731 105.9214225
  60.9621797  77.9406696 105.7335209  61.5812002  76.7047150 106.3508605
  68.8723350  59.9078098 111.7962441  68.5287619  60.7979740 111.7201551
  69.2402312  59.7179756 110.9332026  56.9409200  72.2311629 104.6151043
  57.7784422  72.6408637 104.3984750  57.1187468  71.2911071 104.5851237
  68.8373632  69.8986710 100.3034876  68.3220256  70.6691314 100.5423263
  68.5650941  69.2251846 100.9267937  66.4220743  64.7436410 105.3620114
  65.5662340  64.3543261 105.1825753  66.8347695  64.8228371 104.5019900
  67.9519890  62.2782754 109.7611674  67.4484686  62.2412889 108.9479479
  68.2450497  63.1875496 109.8208331  64.1962776  62.3621483 108.7677856
  65.0615773  62.1664292 108.4083745  64.2640285  62.1331835 109.6947212
  73.8107907  72.6519064 102.2388049  73.0337349  72.3130224 101.7943211
  74.4899387  72.6571687 101.5643014  68.6259936  67.7713802 102.1294657
  68.3210071  68.0859951 102.9804800  69.5790378  67.8495222 102.1721990
  67.0706367  73.9304025 103.7787611  66.5427729  73.1956785 103.4660848
  66.5693870  74.7078701 103.5327579  61.8025095  64.5923691 106.1394222
  62.3768847  64.3698873 105.4067415  62.3896077  64.6612386 106.8922824
  62.1294682  66.6228152 100.1590108  61.2931994  66.9602839 100.4799382
  61.9899452  66.4877132  99.2217245  64.1047763  61.4664940 104.8669292
  63.4512175  61.1513957 104.2425907  64.0628237  60.8440681 105.5929115
  65.2158968  71.7484235  96.7822584  64.3086029  71.5173489  96.9813733
  65.7130000  70.9521855  96.9696565  68.1227046  80.4581742  99.7019270
  67.4488745  80.7613439 100.3104228  68.5092868  81.2610823  99.3524727
  67.3385503  67.9546874 109.1916939  66.4208064  68.1761821 109.0338628
  67.7545647  68.0293184 108.3328647  68.1220551  69.3538289 104.3219620
  68.8692370  69.8659687 104.0126742  68.3912140  69.0322342 105.1824013
  66.3947201  71.8496830 101.3046574  65.4858420  71.5655863 101.4019044
  66.4242285  72.2695909 100.4449881  70.5699388  66.3895406 106.3038409
  69.8322145  65.8772792 106.6348652  70.8226162  65.9495787 105.4921686
  70.6711015  59.1671658 106.8980178  70.9769892  58.3069021 106.6106093
  71.3963620  59.7589278 106.6979172  56.9635371  69.5702344 105.2861776
  56.7659771  68.9771705 104.5612843  56.4082035  69.2654554 106.0037715
  64.9432095  69.4625451 107.4056369  64.9980705  68.5099287 107.3298846
  64.1323297  69.6184890 107.8897668  66.0923289  73.3905574  98.6434653
  65.6542719  72.6741433  98.1840290  66.8333730  73.6181689  98.0819744
  62.8824455  68.0802510 105.1646748  62.0692321  68.3796681 105.5711940
  63.3783449  67.6858199 105.8821230  74.2096404  71.6662771 104.7010971
  74.0714302  71.8564367 103.7732160  73.8532622  72.4282154 105.1579022
  62.3738530  65.6520866 110.7807983  63.0137909  65.5109625 110.0830947
  61.5416060  65.3655379 110.4046585  63.1498834  74.9523296 106.8942976
  63.9439432  74.4573617 106.6925551  62.4390526  74.4241160 106.5310681
  59.4581597  69.0966378 102.9702728  58.5279185  69.0350834 103.1872690
  59.5539069  68.5742331 102.1739370  59.3767146  65.6221191 105.5580970
  59.6373963  66.5366524 105.4490130  60.1984318  65.1545634 105.7077583
  60.8492071  67.0358948 112.7279795  61.5215125  66.8276310 112.0792443
  60.0221858  66.8381034 112.2885027  66.3218262  80.6261415 101.9166349
  66.4970017  80.1549458 102.7311972  65.6351050  81.2527181 102.1447610
  70.2134516  72.2489955  98.2366710  69.5963687  71.5236784  98.1399763
  69.7451005  73.0099316  97.8933784  62.0033062  66.4675380  97.3588014
  61.1262529  66.3464181  96.9950261  62.4790815  65.6761458  97.1066903
  53.5235202  71.2552539 107.4529522  54.2106242  70.9414270 106.8650537
  53.3683331  72.1593904 107.1796773  58.3269925  66.1442736 111.8814545
  58.2428113  65.5368406 111.1464955  57.5052631  66.6351754 111.8824042
  68.4993638  64.6296300 107.2484740  68.9962338  63.8766262 106.9285811
  67.7280620  64.6660616 106.6827950  69.5823419  73.3867987 104.8223164
  68.6479698  73.5069449 104.6527868  69.7600088  72.4840454 104.5583174
  65.0828607  66.7713683 106.9756425  64.7126395  66.2184723 107.6637331
  65.5787700  66.1671816 106.4231425  72.9695971  69.2285306 105.3573198
  73.4356423  70.0613298 105.2833501  73.4203471  68.7630288 106.0618456
  71.0372202  75.5729127 102.3559350  71.3132046  75.4585722 103.2653224
  70.1676700  75.1746612 102.3171523  70.9412633  61.5965893 109.3964099
  70.0275713  61.8270120 109.5646306  71.3705735  61.6804337 110.2478132
  68.0068431  78.7483663 103.2607212  68.5356198  78.2376118 102.6477374
  68.2696651  78.4326194 104.1252745  53.1003179  69.3353133 109.7246989
  53.1387278  68.8016724 110.5184107  52.5943471  68.8088338 109.1057966
  60.4793941  64.1817673 113.2209531  60.5435267  65.0432504 112.8086929
  60.4161061  63.5691675 112.4881890  56.7311756  68.0617235 102.8000920
  57.0265197  67.1527913 102.7467974  55.8299792  68.0404974 102.4781922
  60.2606003  66.1373232 108.7828469  59.5392589  66.7509199 108.6435942
  61.0499259  66.6730996 108.7045115  58.4599598  65.7431333 102.9240245
  58.1312304  64.8628712 102.7415351  58.8138968  65.6879001 103.8116635
  61.5741421  66.0304302 103.2915723  61.9137493  66.5590224 102.5694331
  62.0213541  66.3684709 104.0674290  64.2684862  64.4141353 112.7418791
  63.9281682  63.6149166 113.1439471  63.5623868  64.7143064 112.1695624
  64.9201334  61.4990666 111.1946114  65.7427403  61.0251144 111.0725004
  65.1639397  62.2781149 111.6944800  63.5609568  64.5278924 101.4909016
  64.2817931  64.9060177 100.9872733  62.9374872  65.2467801 101.5943994
  67.7040691  65.2324073 102.4267348  67.9204305  66.1148711 102.1256176
  67.2234758  64.8410286 101.6972990  62.4439912  68.1909786 109.0038093
  62.2984493  68.5050089 109.8962374  61.9665116  68.8094687 108.4508991
  64.3036295  65.1812334 109.0518982  64.2897864  64.2853428 108.7151280
  65.0208723  65.1882998 109.6857268  66.1562426  65.6149674 111.0972110
  65.8980204  66.5366745 111.0956440  65.6247466  65.2180109 111.7872574
  56.9185574  70.7315131 111.9425754  56.3739043  71.5074939 112.0746028
  57.7964924  71.0785935 111.7844875  63.7073191  64.0626715 104.3206552
  63.8289102  63.1343361 104.5197440  63.4175234  64.0765400 103.4084868
  66.5764382  61.7481625 107.4573272  66.5986078  61.8120958 106.5025252
  66.9932441  60.9086134 107.6513778  72.0883787  78.0367226 100.9759093
  72.7834692  78.6573919 101.1946408  72.4306937  77.1862577 101.2511471
  73.9875210  75.4866931 102.5046424  74.5126534  75.8254204 101.7795744
  73.8997563  74.5513947 102.3209559  58.1508210  77.7450456 106.8666305
  58.9766230  77.4454227 106.4864949  57.8002262  76.9758078 107.3156094
  56.3516815  75.6636782 107.8255239  55.5148723  75.2358956 107.6439240
  56.3240461  75.8569225 108.7626030  62.6803250  75.6480847 102.4122439
  62.8291370  76.3316312 101.7589112  63.4869694  75.6285937 102.9271895
  60.4355883  71.6746025 103.4183508  60.1901925  70.7708355 103.6163719
  60.6051798  71.6763175 102.4762986  59.7051531  67.4074382 100.9169670
  59.0120776  67.4818737 100.2609706  59.4603283  66.6434726 101.4391187
  68.3765187  58.9669984 108.3209161  68.6566941  58.2993173 108.9469587
  69.1615794  59.1599079 107.8083824  66.1798656  78.1428978  99.8834187
  65.6072623  78.7619165  99.4304659  66.7531449  78.6928339 100.4174109
  69.3995915  78.4266128 101.0142769  70.3326589  78.3611689 101.2175645
  69.3119128  79.2622395 100.5557302  72.0283932  77.7431998  97.9746717
  71.9497564  77.4091862  98.8682475  72.8493599  78.2353766  97.9738189
  66.5645454  69.4789790  97.2250239  67.5104559  69.3495999  97.2938657
  66.1859699  68.7404452  97.7019668  72.5367339  61.1445796 107.1877131
  72.3392160  60.8360885 108.0720463  73.1467044  61.8707435 107.3175061
  64.7488371  67.4039767  97.1605125  63.8419827  67.1072879  97.2367838
  65.0264352  67.1069585  96.2939411  55.6666312  68.7246130 107.6104171
  55.3469096  67.8711438 107.3178545  55.1199740  68.9394708 108.3662138
  66.3650437  61.9476656 103.3149366  65.5551165  61.6023741 103.6904612
  67.0534854  61.6384200 103.9036977  68.2940985  61.0254703 104.9373663
  68.8472024  61.4450157 105.5963686  68.5311072  60.0990451 104.9796619
  63.5187156  64.2626702  97.3017104  64.3806320  64.5881600  97.5612921
  63.7037500  63.4758198  96.7890170  55.5354572  72.3449042 109.5797293
  54.8418043  71.9302994 109.0667247  56.2827563  72.3869578 108.9830711
  71.6719792  63.1355228 104.4452327  71.0918461  63.7940032 104.0630379
  71.4055725  62.3132573 104.0339744  70.1223359  62.5360286 106.6473647
  70.6223137  62.6476821 105.8387966  70.7658967  62.2321339 107.2874456
  57.4491314  72.2767295 107.4563307  57.4262002  72.3754983 106.5045191
  57.7591951  73.1232446 107.7780474  70.4544670  65.2955319 103.5008675
  69.5670525  65.5804969 103.2828870  70.8698659  65.1349082 102.6535952
  73.8059207  65.3201840 107.2163014  74.5819597  65.8098292 107.4887631
  73.0807341  65.7459894 107.6734884  69.5987884  75.0599994  97.5956695
  70.3023734  75.2649996  98.2114351  68.8750533  75.6276755  97.8605779
  70.4285694  70.8109855 103.7158965  70.3720896  71.2678406 102.8766598
  70.9814037  70.0500539 103.5381808  74.2390500  66.5999587 104.5409085
  73.9827434  66.1996222 105.3717292  73.6143368  67.3143381 104.4159224
  71.5074581  75.4982523  99.6455155  72.3420185  75.0663721  99.4632630
  71.3458924  75.3264536 100.5732050  71.1620473  72.0014636 101.0111494
  71.1069277  71.8358907 100.0699939  70.5366529  72.7090669 101.1673684
  64.4716599  61.5022745 100.5896813  64.4595269  62.4464585 100.7465084
  65.3640021  61.3192890 100.2956274  68.2868718  58.0965522 104.8442750
  67.5201114  57.5424008 104.9899432  68.6979423  58.1687390 105.7056901
  72.8426817  81.7967297  97.3588014  71.9656283  81.6756098  96.9950261
  73.3184570  81.0053376  97.1066903  75.5882126  82.7331684  97.1605125
  74.6813581  82.4364797  97.2367838  75.8658107  82.4361503  96.2939411
  74.3580910  79.5918620  97.3017104  75.2200074  79.9173518  97.5612921
  74.5431255  78.8050116  96.7890170  75.3110353  76.8314663 100.5896813
  75.2989023  77.7756503 100.7465084  76.2033775  76.6484808 100.2956274
  35.6045784  11.4768112  86.4264577  34.9307483  11.7799809  87.0349535
  35.9911606  12.2797192  86.0770034  39.5702525   9.0553596  87.7004400
  40.2653430   9.6760288  87.9191715  39.9125675   8.2048947  87.9756778
  33.6617393   9.1615347  86.6079494  33.0891361   9.7805534  86.1549965
  34.2350187   9.7114709  87.1419415  36.8814653   9.4452497  87.7388076
  37.8145326   9.3798059  87.9420951  36.7937866  10.2808764  87.2802608
  39.5102670   8.7618368  84.6992023  39.4316301   8.4278231  85.5927781
  40.3312337   9.2540136  84.6983496  37.0806622   6.0786363  84.3202002
  37.7842472   6.2836366  84.9359657  36.3569270   6.6463125  84.5851085
  38.9893319   6.5168892  86.3700462  39.8238923   6.0850091  86.1877937
  38.8277662   6.3450906  87.2977356  47.6177594  17.0338543  96.4655638
  48.2556004  16.9145291  95.7618979  47.4998437  17.9819387  96.5243591
  40.2854116  18.8401448  92.3914054  39.7218981  18.7491385  91.6230342
  40.1706511  18.0201352  92.8716547  45.8653675  22.5072416  87.7028519
  45.2141655  23.0926496  87.3162533  46.6598038  23.0378611  87.7623557
  39.7909302  19.5961553  88.1015653  40.5640178  19.0490540  87.9628529
  40.1434701  20.4605802  88.3130115  42.1275580  15.7554219  85.7334103
  42.3801101  15.2335740  84.9717566  41.1900139  15.5920364  85.8360787
  47.1718863  14.7589997  93.5408847  47.9581952  14.3409420  93.1899264
  47.4357567  15.6636089  93.7090495  47.3428940  20.1962848  88.2397503
  46.7074773  20.2697474  88.9518408  47.0126346  20.7856446  87.5616583
  52.5727290  14.6965230  94.4441825  53.3052462  14.1264447  94.6779655
  51.8166645  14.3086831  94.8848331  41.8471869  17.6582325  87.9358478
  41.7308127  16.9827228  88.6039563  41.9574128  17.1714699  87.1190631
  44.1903410  17.1192472  91.6405167  43.8261617  16.5923093  92.3518089
  45.0470525  16.7290941  91.4671653  43.8308896  12.1482372  86.6366516
  43.9983299  13.0162608  87.0036987  43.6406066  12.3109653  85.7127805
  43.8098117  14.6040029  87.6213183  43.6897743  15.0497080  88.4598663
  43.1150706  14.9525347  87.0626721  41.5705009  27.3743671  91.2703314
  41.4929039  28.3251496  91.3491795  40.9666653  27.0289543  91.9278240
  49.5083184  15.0761502  88.4493517  50.4201040  15.3088889  88.2741214
  48.9992831  15.6598547  87.8868595  48.1152766  20.0587321  95.8407098
  47.4861628  20.2233035  95.1383166  47.7278428  20.4728930  96.6118062
  51.9941998  20.9941759  93.1951462  51.3093036  21.3740660  92.6448495
  52.0785847  21.6037085  93.9283410  43.6680728  19.7961729  93.1057183
  44.1319073  20.0749432  92.3161806  43.4037526  18.8945173  92.9230274
  42.6049614  15.9184881  89.9146749  43.3073657  16.3705925  90.3820675
  42.2730242  15.2768700  90.5426642  50.3638757  21.5173673  97.9669163
  51.1856201  21.1153860  97.6851845  50.3601160  21.4141907  98.9185279
  58.4544750  17.8612422  94.3154134  57.7008459  17.2919820  94.1598139
  58.5892292  17.8275086  95.2624769  43.8443378  22.7325824  89.9908854
  43.7089053  23.5777360  90.4193702  44.3853191  22.9345101  89.2274788
  37.2972776  20.2501262  90.5636779  37.8097296  21.0444512  90.7142344
  37.9495489  19.5527552  90.4970380  39.1067660  23.3667018  92.6459532
  39.2834289  24.2884983  92.4580516  39.9024494  23.0525437  93.0753912
  40.2298976  24.8845192  98.6469874  40.7806401  24.7562255  97.8746868
  39.3910452  25.1840081  98.2964767  35.2621693  18.5789916  91.3396349
  36.0996915  18.9886925  91.1230057  35.4399960  17.6389358  91.3096543
  47.1586125  16.2464997  87.0280182  46.6432748  17.0169601  87.2668570
  46.8863433  15.5730133  87.6513244  44.7433236  11.0914698  92.0865421
  43.8874832  10.7021548  91.9071059  45.1560187  11.1706658  91.2265206
  52.1320399  18.9997351  88.9633356  51.3549842  18.6608511  88.5188518
  52.8111880  19.0049975  88.2888321  46.9472428  14.1192089  88.8539964
  46.6422563  14.4338238  89.7050107  47.9002870  14.1973509  88.8967297
  45.3918860  20.2782312  90.5032918  44.8640221  19.5435072  90.1906155
  44.8906362  21.0556989  90.2572886  50.3711706  18.4731333  95.6199964
  49.7135380  19.1630594  95.7080092  51.1752105  18.8627765  95.9633950
  49.1817165  16.8275705  93.6703906  49.6949046  17.4605697  94.1725615
  49.8318388  16.2276901  93.3047266  40.4507174  12.9706440  86.8835414
  39.6144487  13.3081126  87.2044689  40.3111944  12.8355419  85.9462551
  43.5371460  18.0962523  83.5067891  42.6298522  17.8651776  83.7059040
  44.0342492  17.3000142  83.6941872  46.4439539  26.8060030  86.4264577
  45.7701238  27.1091726  87.0349535  46.8305361  27.6089110  86.0770034
  46.4433043  15.7016577  91.0464926  47.1904862  16.2137974  90.7372048
  46.7124633  15.3800629  91.9069320  44.7159693  18.1975117  88.0291881
  43.8070913  17.9134150  88.1264350  44.7454777  18.6174196  87.1695188
  49.9478961  21.8081707  91.7983048  49.4941288  20.9672617  91.8548239
  49.3172927  22.4443105  92.1357828  48.8911880  12.7373693  93.0283716
  48.1534637  12.2251079  93.3593958  49.1438654  12.2974075  92.2166993
  48.3911900  23.6458204  92.7332866  48.6834874  24.2063261  92.0145232
  48.9010521  23.9386765  93.4886025  44.4135781  19.7383861  85.3679959
  43.9755211  19.0219720  84.9085597  45.1546222  19.9659976  84.8065051
  41.2036947  14.4280798  91.8892055  40.3904813  14.7274968  92.2957247
  41.6995941  14.0336487  92.6066537  43.3545525  24.4238555  93.8226320
  43.3121704  24.6499401  92.8934852  44.2708224  24.1901929  93.9712121
  52.5308896  18.0141058  91.4256278  52.3926794  18.2042654  90.4977467
  52.1745115  18.7760441  91.8824329  52.5578275  20.0817585  96.4367549
  52.9914782  19.9892874  97.2850603  53.2709856  20.0575086  95.7987565
  41.4711326  21.3001584  93.6188282  42.2651924  20.8051904  93.4170857
  40.7603018  20.7719447  93.2555988  46.2906170  23.6819679  97.9700650
  46.3443193  24.2510616  98.7378366  45.4220952  23.8521564  97.6054687
  37.7794089  15.4444665  89.6948035  36.8491677  15.3829121  89.9117997
  37.8751561  14.9220618  88.8984676  53.4193825  20.1241286  98.9700435
  53.6129715  21.0287096  99.2159710  53.3194443  19.6648705  99.8039020
  44.0482602  21.8730606  97.2986119  43.9093688  21.5049390  98.1712057
  43.2597198  22.3878245  97.1270077  44.6430754  26.9739702  88.6411656
  44.8182510  26.5027745  89.4557279  43.9563542  27.6005468  88.8692917
  45.5987817  21.2512208  94.6874957  45.2637650  21.2112978  95.5832607
  45.0991763  20.5856924  94.2145367  48.5347009  18.5968243  84.9612017
  47.9176179  17.8715071  84.8645070  48.0663497  19.3577603  84.6179091
  39.2091839  30.1229065  95.4151516  39.4488437  30.7547589  96.0930535
  38.3661036  29.7717105  95.7016875  40.3245555  12.8153667  84.0833321
  39.4475021  12.6942468  83.7195568  40.8003308  12.0239745  83.8312210
  43.7219701  25.9308187  97.8193020  43.6489873  26.7363159  98.3312325
  43.2797094  26.1300153  96.9941041  43.5109481  25.1679957  91.3295842
  42.7277003  25.7101638  91.4234066  44.2102226  25.6853937  91.7290083
  54.6735888  16.6814952  95.6148339  54.6625764  17.5639668  95.2442272
  53.8053268  16.3286503  95.4202876  46.1818385  25.8295021  99.9751179
  46.8946357  26.4642486  99.9027080  45.6908413  25.9258887  99.1591181
  47.9035911  19.7346274  91.5468470  46.9692190  19.8547737  91.3773175
  48.0812580  18.8318741  91.2828480  51.2908463  15.5763593  92.0818505
  51.7568915  16.4091585  92.0078807  51.7415963  15.1108575  92.7863763
  49.3584694  21.9207415  89.0804657  49.6344538  21.8064009  89.9898531
  48.4889193  21.5224899  89.0416830  45.9938758  26.1693765  92.7237470
  46.1761152  25.3515421  93.1865223  46.8171744  26.3861458  92.2862360
  46.3280923  25.0961951  89.9852519  46.8568690  24.5854405  89.3722681
  46.5909143  24.7804481  90.8498052  39.6836671  26.1477067  92.7450295
  39.0147047  26.6323195  92.2614335  39.5449541  26.3946288  93.6593673
  43.8241940  28.1820811  99.3432953  44.3760248  28.3452432 100.1082038
  44.1648133  28.7725249  98.6712978  35.0524248  14.4095522  89.5246227
  35.3477690  13.5006201  89.4713280  34.1512284  14.3883262  89.2027229
  46.9610327  26.1302786  96.3296635  46.8361467  25.3292526  95.8207581
  47.6189418  26.6248980  95.8410605  49.0245236  23.9311806  97.9576185
  48.0775571  23.8117158  97.8854512  49.3728009  23.0434304  98.0402447
  46.0291669  23.7264523  94.1580537  45.8816631  22.7981230  94.3388107
  46.8545162  23.7484613  93.6737613  39.8953913  12.3782590  90.0161030
  40.2349986  12.9068511  89.2939638  40.3426034  12.7162996  90.7919596
  49.6325791  24.5493081  95.2445410  50.5572338  24.3435943  95.1069861
  49.4641094  24.3009483  96.1534752  41.8822060  10.8757211  88.2154322
  42.6030423  11.2538464  87.7118039  41.2587364  11.5946088  88.3189300
  46.0253183  11.5802360  89.1512655  46.2416798  12.4626998  88.8501483
  45.5447250  11.1888574  88.4218297  49.4221107  25.0678749  90.6007502
  49.5957985  24.5025171  89.8481354  49.9149998  25.8679644  90.4186992
  55.2760498  17.8315172  92.2197801  55.7191644  17.0822497  91.8216925
  54.3987008  17.8225308  91.8371533  50.4096279  24.3845513  87.7004400
  51.1047184  25.0052206  87.9191715  50.7519430  23.5340864  87.9756778
  52.3087703  21.8345219  89.2291731  52.8339027  22.1732491  88.5041051
  52.2210055  20.8992234  89.0454865  43.9928363  27.9017202  93.5886984
  43.5533354  27.4093581  94.2819841  44.7436480  27.3590170  93.3479059
  36.4720702  24.0928743  93.5911612  37.2978722  23.7932515  93.2110255
  36.1214754  23.3236365  94.0401401  41.4402235  23.4455211  95.6609286
  40.8182245  22.7825916  95.3611513  42.1107102  23.4716343  94.9782933
  41.0015742  21.9959134  89.1367746  41.1503863  22.6794599  88.4834419
  41.8082186  21.9764224  89.6517202  54.8193363  19.3020410  94.6120249
  55.6540254  19.7410214  94.7757809  54.9552492  18.8259063  93.7928495
  38.7568375  18.0224312  90.1428815  38.5114417  17.1186642  90.3409025
  38.9264290  18.0241463  89.2008293  38.0264023  13.7552670  87.6414976
  37.3333268  13.8297025  86.9855012  37.7815775  12.9913013  88.1636493
  44.5011148  24.4907265  86.6079494  43.9285115  25.1097452  86.1549965
  45.0743942  25.0406627  87.1419415  47.7208408  24.7744415  87.7388076
  48.6539081  24.7089977  87.9420951  47.6331621  25.6100682  87.2802608
  50.3496424  24.0910285  84.6992023  50.2710056  23.7570149  85.5927781
  51.1706091  24.5832053  84.6983496  53.0474616  16.9572025  97.9068342
  53.0150936  16.0188025  98.0928026  53.6575239  17.0356061  97.1734167
  44.8857946  15.8268078  83.9495546  45.8317051  15.6974286  84.0183964
  44.5072191  15.0882740  84.4264974  58.8651165  18.0188032  97.0474379
  59.5954554  17.7573320  97.6082082  58.2558111  17.2816753  97.0876447
  56.9466463  16.1595894  97.6448830  56.2199626  16.0251859  97.0365322
  56.5313749  16.4672723  98.4505548  43.0700864  13.7518054  83.8850431
  42.1632319  13.4551167  83.9613145  43.3476845  13.4547872  83.0184717
  44.6862929   8.2954944  90.0394673  43.8763658   7.9502029  90.4149919
  45.3747346   7.9862487  90.6282284  41.8399648  10.6104989  84.0262410
  42.7018812  10.9359888  84.2858228  42.0249992   9.8236485  83.5135476
  49.9932285   9.4833516  91.1697633  49.4130954  10.1418320  90.7875686
  49.7268217   8.6610860  90.7585051  48.7757163  11.6433606  90.2253982
  47.8883018  11.9283257  90.0074176  49.1911152  11.4827369  89.3781259
  52.1271699  11.6680127  93.9408321  52.9032089  12.1576580  94.2132938
  51.4019833  12.0938181  94.3980190  54.5644257  12.3807746  94.9982262
  55.1588748  12.1403482  94.2875570  54.6370841  11.6614877  95.6255798
  36.7841413  26.2241357  95.3125426  36.6495881  25.4641758  94.7463424
  36.3673475  26.9482257  94.8454215  47.9200376  21.4078281  84.3202002
  48.6236226  21.6128283  84.9359657  47.1963025  21.9755043  84.5851085
  48.7498186  17.1588142  90.4404272  48.6933388  17.6156693  89.6011904
  49.3026529  16.3978827  90.2627115  52.5602992  12.9477874  91.2654391
  52.3039927  12.5474510  92.0962599  51.9355860  13.6621668  91.1404531
  56.8715330  15.6873947  93.7725683  56.3114888  15.7567136  94.5457245
  56.2658834  15.5114932  93.0525179  39.9410539  27.1210674  95.5243869
  39.8242923  28.0656107  95.4222559  39.1202985  26.8184236  95.9129668
  49.8287074  21.8460810  86.3700462  50.6632677  21.4142008  86.1877937
  49.6671416  21.6742824  87.2977356  49.4832966  18.3492923  87.7356801
  49.4281770  18.1837195  86.7945245  48.8579021  19.0568956  87.8918991
  42.7929091   7.8501032  87.3142119  42.7807761   8.7942872  87.4710390
  43.6852513   7.6671178  87.0201581  40.9665053  27.7738936  98.7399797
  41.8692300  27.8062546  99.0566292  40.7402423  26.8439387  98.7546133
  42.7218655  26.5269923  95.4009876  41.7714286  26.5271784  95.2874248
  43.0251141  25.7802657  94.8845911  58.4571349  32.3630461  96.4655638
  59.0949759  32.2437208  95.7618979  58.3392192  33.3111305  96.5243591
  55.2661055  32.3157889  96.4017163  54.9279566  32.1998954  95.5137698
  56.1350823  31.9149054  96.3818169  51.1247871  34.1693366  92.3914054
  50.5612736  34.0783303  91.6230342  51.0100266  33.3493270  92.8716547
  55.7480838  33.4692741 102.3603369  55.7369479  33.0745539 101.4883872
  55.9101477  32.7358814 102.9537140  48.6712303  35.6644557  95.2298275
  49.4633594  35.3235382  94.8144574  48.9108953  35.7739532  96.1500428
  56.7047429  37.8364333  87.7028519  56.0535409  38.4218414  87.3162533
  57.4991792  38.3670528  87.7623557  50.6303056  34.9253470  88.1015653
  51.4033932  34.3782458  87.9628529  50.9828455  35.7897720  88.3130115
  52.4688099  36.2529853 101.3082553  52.1777965  37.1575484 101.1929219
  53.1045083  36.2946380 102.0226622  53.3944306  33.6306701  97.8983912
  53.9907878  33.4062724  97.1840875  53.4519277  32.8891447  98.5009360
  52.9669334  31.0846137  85.7334103  53.2194855  30.5627658  84.9717566
  52.0293893  30.9212282  85.8360787  58.0112617  30.0881915  93.5408847
  58.7975706  29.6701338  93.1899264  58.2751321  30.9928007  93.7090495
  58.1822694  35.5254765  88.2397503  57.5468527  35.5989392  88.9518408
  57.8520101  36.1148364  87.5616583  63.4121044  30.0257148  94.4441825
  64.1446216  29.4556365  94.6779655  62.6560400  29.6378749  94.8848331
  52.6865623  32.9874243  87.9358478  52.5701881  32.3119146  88.6039563
  52.7967883  32.5006616  87.1190631  55.0297164  32.4484390  91.6405167
  54.6655371  31.9215011  92.3518089  55.8864280  32.0582859  91.4671653
  60.9346465  23.7378722  98.9036434  60.6029789  24.6074133  98.6797649
  60.3392078  23.4215006  99.5830464  54.6702651  27.4774289  86.6366516
  54.8377053  28.3454526  87.0036987  54.4799820  27.6401571  85.7127805
  57.4277984  35.9391268  98.3032346  57.1278707  36.8416307  98.1948154
  57.0829044  35.6723451  99.1553499  50.8790466  32.3905065  94.3369051
  49.9540962  32.2581279  94.5446743  51.1274879  33.1699284  94.8338993
  60.8275128  28.4573808  95.9829784  59.9192005  28.3889217  95.6888545
  60.7762724  28.9345753  96.8111609  54.6491872  29.9331947  87.6213183
  54.5291497  30.3788998  88.4598663  53.9544460  30.2817264  87.0626721
  48.2399277  32.0338339  95.1712840  48.3691658  32.2872818  96.0852252
  47.5596728  32.6266047  94.8517495  52.4098764  42.7035589  91.2703314
  52.3322794  43.6543414  91.3491795  51.8060408  42.3581461  91.9278240
  54.9015994  29.8763454 103.9264681  54.1249328  30.4357374 103.9167546
  55.5406557  30.3620237 104.4479551  62.6936774  26.6590247  97.7607658
  62.0511155  26.9522780  97.1147452  62.1891703  26.5443167  98.5660854
  60.3476938  30.4053420  88.4493517  61.2594794  30.6380807  88.2741214
  59.8386585  30.9890464  87.8868595  53.1562366  32.6848907 103.4882648
  53.8977050  33.2233951 103.2117472  52.4499351  33.3115196 103.6454200
  58.6317706  34.8278048 102.0854809  59.0401062  34.3860458 101.3409442
  57.9094967  34.2530675 102.3389002  54.9848776  29.7650655  99.4588366
  55.8309971  30.1890068  99.6023015  54.9247413  29.1084279 100.1526930
  58.9546520  35.3879238  95.8407098  58.3255383  35.5524953  95.1383166
  58.5672182  35.8020848  96.6118062  62.8335752  36.3233676  93.1951462
  62.1486790  36.7032578  92.6448495  62.9179602  36.9329003  93.9283410
  58.1348221  27.4255023 101.1169540  57.8909153  28.1797083 100.5803816
  58.4108152  27.8040371 101.9516787  60.0886684  33.9693635  99.7946806
  60.3003579  34.6125395  99.1181187  60.0416432  33.1355952  99.3268736
  57.6912913  26.5811456  96.6983378  56.8297392  26.8792710  96.9900115
  57.7175347  26.7981855  95.7664410  54.5074482  35.1253647  93.1057183
  54.9712828  35.4041350  92.3161806  54.2431280  34.2237091  92.9230274
  51.3998563  34.6725128  96.0436947  51.9699920  35.1012396  95.4054431
  51.9906675  34.3907713  96.7421132  53.4443368  31.2476799  89.9146749
  54.1467412  31.6997843  90.3820675  53.1123997  30.6060618  90.5426642
  51.8923730  29.8388556 104.2897958  51.2622390  30.5204836 104.5233355
  51.7859818  29.7271637 103.3451096  47.1868702  29.5060352  95.2163882
  46.3967756  29.7617880  94.7403993  47.6779950  30.3208689  95.3215923
  61.2032512  36.8465591  97.9669163  62.0249955  36.4445778  97.6851845
  61.1994915  36.7433825  98.9185279  49.1383448  29.8704931  92.1747359
  48.3414611  29.9823625  92.6930855  48.9109040  30.2091583  91.3088249
  54.9689115  36.3949634 100.1229873  55.0333548  36.8570041 100.9588045
  54.2600039  35.7646999 100.2512183  45.4706405  29.7590842  97.6478873
  45.7214444  30.6437852  97.9136449  46.0065954  29.5795444  96.8753965
  69.2938505  33.1904339  94.3154134  68.5402213  32.6211737  94.1598139
  69.4286046  33.1567004  95.2624769  54.6837133  38.0617742  89.9908854
  54.5482808  38.9069277  90.4193702  55.2246945  38.2637019  89.2274788
  48.1366530  35.5793180  90.5636779  48.6491051  36.3736430  90.7142344
  48.7889243  34.8819470  90.4970380  49.9461415  38.6958936  92.6459532
  50.1228043  39.6176901  92.4580516  50.7418248  38.3817355  93.0753912
  54.0872433  25.5567200 104.2443466  54.8282147  26.1574354 104.1647928
  54.3190356  24.8144838 103.6861508  49.2313772  30.7423568 102.5221695
  49.1167287  29.8408825 102.8228794  48.3758289  30.9887264 102.1706512
  56.3105609  38.6841308 104.1209196  55.8669463  37.8977687 103.8030100
  56.9722823  38.8720459 103.4553087  51.0692730  40.2137110  98.6469874
  51.6200156  40.0854173  97.8746868  50.2304206  40.5131999  98.2964767
  58.4086847  38.9644108 102.1490597  58.3905323  39.7852989 101.6570866
  59.3306767  38.8398183 102.3740738  54.8659901  36.4788237 102.9914106
  55.3988238  35.7176526 102.7613413  54.3373983  36.1861889 103.7338260
  58.0329596  21.5848303  98.5207747  57.6893866  22.4749945  98.4446858
  58.4008559  21.3949961  97.6577332  46.1015447  33.9081834  91.3396349
  46.9390669  34.3178842  91.1230057  46.2793715  32.9681276  91.3096543
  57.9979879  31.5756915  87.0280182  57.4826503  32.3461519  87.2668570
  57.7257188  30.9022051  87.6513244  55.5826990  26.4206615  92.0865421
  54.7268587  26.0313466  91.9071059  55.9953942  26.4998576  91.2265206
  57.1126137  23.9552959  96.4856981  56.6090932  23.9183094  95.6724786
  57.4056744  24.8645701  96.5453637  53.3569023  24.0391688  95.4923162
  54.2222019  23.8434497  95.1329052  53.4246532  23.8102040  96.4192519
  62.9714153  34.3289269  88.9633356  62.1943596  33.9900429  88.5188518
  63.6505634  34.3341892  88.2888321  57.7866182  29.4484007  88.8539964
  57.4816318  29.7630156  89.7050107  58.7396624  29.5265427  88.8967297
  56.2312614  35.6074230  90.5032918  55.7033976  34.8726990  90.1906155
  55.7300117  36.3848906  90.2572886  61.2105460  33.8023250  95.6199964
  60.5529135  34.4922512  95.7080092  62.0145859  34.1919682  95.9633950
  50.9631342  26.2693896  92.8639529  51.5375094  26.0469078  92.1312722
  51.5502324  26.3382591  93.6168130  60.0210919  32.1567623  93.6703906
  60.5342801  32.7897615  94.1725615  60.6712143  31.5568819  93.3047266
  51.2900929  28.2998357  86.8835414  50.4538241  28.6373044  87.2044689
  51.1505699  28.1647337  85.9462551  53.2654009  23.1435145  91.5914598
  52.6118422  22.8284162  90.9671213  53.2234484  22.5210886  92.3174421
  54.3765214  33.4254440  83.5067891  53.4692276  33.1943694  83.7059040
  54.8736246  32.6292059  83.6941872  57.2833293  42.1351947  86.4264577
  56.6094992  42.4383644  87.0349535  57.6699115  42.9381028  86.0770034
  56.4991750  29.6317079  95.9162246  55.5814311  29.8532026  95.7583934
  56.9151893  29.7063389  95.0573953  57.2826798  31.0308494  91.0464926
  58.0298617  31.5429892  90.7372048  57.5518387  30.7092547  91.9069320
  55.5553448  33.5267035  88.0291881  54.6464667  33.2426068  88.1264350
  55.5848532  33.9466114  87.1695188  60.7872715  37.1373625  91.7983048
  60.3335042  36.2964534  91.8548239  60.1566682  37.7735023  92.1357828
  59.7305635  28.0665611  93.0283716  58.9928392  27.5542997  93.3593958
  59.9832408  27.6265992  92.2166993  59.2305654  38.9750121  92.7332866
  59.5228629  39.5355178  92.0145232  59.7404275  39.2678682  93.4886025
  59.8317262  20.8441863  93.6225485  60.1376139  19.9839226  93.3351400
  60.5569867  21.4359483  93.4224479  46.1241618  31.2472549  92.0107083
  45.9266018  30.6541910  91.2858149  45.5688282  30.9424759  92.7283022
  54.1038342  31.1395656  94.1301676  54.1586952  30.1869492  94.0544153
  53.2929544  31.2955095  94.6142974  55.2529536  35.0675779  85.3679959
  54.8148966  34.3511638  84.9085597  55.9939976  35.2951894  84.8065051
  52.0430702  29.7572715  91.8892055  51.2298567  30.0566886  92.2957247
  52.5389696  29.3628404  92.6066537  54.1939280  39.7530472  93.8226320
  54.1515458  39.9791319  92.8934852  55.1101978  39.5193847  93.9712121
  57.6404913  30.2214540 100.7206949  57.9954301  30.4486013 101.5801415
  58.2877045  30.5532917 100.0984204  63.3702650  33.3432976  91.4256278
  63.2320549  33.5334572  90.4977467  63.0138869  34.1052359  91.8824329
  51.5344777  27.3291071  97.5053290  52.1744156  27.1879830  96.8076253
  50.7022307  27.0425584  97.1291892  63.3972030  35.4109503  96.4367549
  63.8308537  35.3184792  97.2850603  64.1103611  35.3867003  95.7987565
  52.3105080  36.6293501  93.6188282  53.1045679  36.1343821  93.4170857
  51.5996773  36.1011364  93.2555988  57.1299925  39.0111597  97.9700650
  57.1836947  39.5802533  98.7378366  56.2614706  39.1813482  97.6054687
  48.6187844  30.7736583  89.6948035  47.6885432  30.7121039  89.9117997
  48.7145316  30.2512536  88.8984676  48.5373393  27.2991396  92.2826277
  48.7980210  28.2136729  92.1735437  49.3590565  26.8315838  92.4322889
  50.0098318  28.7129153  99.4525101  50.6821372  28.5046515  98.8037750
  49.1828105  28.5151239  99.0130333  64.2587580  35.4533203  98.9700435
  64.4523470  36.3579014  99.2159710  64.1588198  34.9940623  99.8039020
  55.9123890  25.3391094 101.4690762  55.2651805  26.0381044 101.3755238
  56.6824906  25.7727238 101.8367010  59.3202688  35.6039946 104.5441315
  59.1688195  35.3750498 103.6271399  59.3107368  36.5610548 104.5572660
  56.0888025  33.1771859  99.5287582  57.0180085  33.3283019  99.3556549
  55.6679055  33.2655880  98.6736228  54.8876356  37.2022523  97.2986119
  54.7487442  36.8341308  98.1712057  54.0990953  37.7170163  97.1270077
  55.4824508  42.3031620  88.6411656  55.6576264  41.8319663  89.4557279
  54.7957296  42.9297386  88.8692917  56.4381572  36.5804126  94.6874957
  56.1031404  36.5404896  95.5832607  55.9385517  35.9148842  94.2145367
  50.4125816  31.9871756 100.2127538  50.2745613  31.2551995 100.8139077
  51.3230739  31.8980656  99.9311726  59.3740763  33.9260160  84.9612017
  58.7569934  33.2006989  84.8645070  58.9057252  34.6869521  84.6179091
  53.0408116  31.6991715  99.7011218  53.7507735  31.0584908  99.6597836
  52.9977424  31.9504610 100.6237399  61.0294895  38.6359069 102.6217797
  60.9707441  37.9518289 101.9548380  61.4314413  39.3778059 102.1698423
  51.7537050  28.6856933 101.5206857  51.2174407  28.2347672 102.1728454
  51.1653759  28.8202842 100.7777322  50.0485594  45.4520983  95.4151516
  50.2882192  46.0839507  96.0930535  49.2054790  45.1009023  95.7016875
  51.1639309  28.1445585  84.0833321  50.2868775  28.0234385  83.7195568
  51.6397062  27.3531663  83.8312210  61.0312302  36.5998653 100.8531777
  60.1439081  36.2624574 100.9758176  61.6010853  35.8681684 101.0900542
  42.6841449  32.9322744  94.1774828  43.3712489  32.6184474  93.5895844
  42.5289578  33.8364109  93.9042080  47.4876171  27.8212941  98.6059852
  47.4034360  27.2138611  97.8710262  46.6658878  28.3121959  98.6069348
  54.5613456  41.2600105  97.8193020  54.4883627  42.0655077  98.3312325
  54.1190849  41.4592071  96.9941041  54.3503235  40.4971875  91.3295842
  53.5670757  41.0393555  91.4234066  55.0495980  41.0145855  91.7290083
  57.6599885  26.3066505  93.9730047  58.1568585  25.5536467  93.6531117
  56.8886867  26.3430821  93.4073256  65.5129643  32.0106870  95.6148339
  65.5019519  32.8931585  95.2442272  64.6447022  31.6578421  95.4202876
  57.0212139  41.1586939  99.9751179  57.7340111  41.7934404  99.9027080
  56.5302168  41.2550805  99.1591181  58.7429666  35.0638192  91.5468470
  57.8085945  35.1839654  91.3773175  58.9206334  34.1610658  91.2828480
  54.2434854  28.4483887  93.7001732  53.8732642  27.8954928  94.3882637
  54.7393946  27.8442021  93.1476732  62.1302217  30.9055511  92.0818505
  62.5962670  31.7383503  92.0078807  62.5809718  30.4400493  92.7863763
  52.0724053  38.9081383 100.7956750  52.7733512  39.5417865 100.9486144
  51.6019168  39.2496114 100.0352389  60.1978448  37.2499332  89.0804657
  60.4738292  37.1355927  89.9898531  59.3282947  36.8516817  89.0416830
  60.1018880  23.2736098  96.1209406  59.1881960  23.5040325  96.2891613
  60.5311982  23.3574542  96.9723438  59.8725339  31.4625990  98.6209300
  59.2196789  31.7101897  97.9661753  60.2505718  30.6490128  98.2871777
  56.8332512  41.4985683  92.7237470  57.0154907  40.6807339  93.1865223
  57.6565498  41.7153375  92.2862360  57.1674678  40.4253868  89.9852519
  57.6962444  39.9146323  89.3722681  57.4302898  40.1096398  90.8498052
  55.9212912  32.2045801 105.1075337  55.2453549  32.1039930 105.7777712
  56.7440545  32.0485015 105.5711334  47.6691771  38.4417738  97.7287852
  48.2545207  37.6961425  97.8615756  47.4716609  38.7521694  98.6124516
  50.5230426  41.4768985  92.7450295  49.8540801  41.9615113  92.2614335
  50.3843296  41.7238205  93.6593673  42.2609425  31.0123338  96.4492295
  42.2993525  30.4786928  97.2429413  41.7549718  30.4858543  95.8303273
  54.6635694  43.5112728  99.3432953  55.2154002  43.6744350 100.1082038
  55.0041888  44.1017166  98.6712978  49.6400188  25.8587878  99.9454838
  49.7041514  26.7202709  99.5332235  49.5767308  25.2461880  99.2127196
  59.5146569  38.3373986 105.1981607  60.0586473  38.9503944 104.7036562
  58.9333414  38.8953564 105.7148620  45.8918003  29.7387440  89.5246227
  46.1871444  28.8298118  89.4713280  44.9906039  29.7175179  89.2027229
  57.8004082  41.4594704  96.3296635  57.6755221  40.6584444  95.8207581
  58.4583173  41.9540897  95.8410605  49.4212250  27.8143436  95.5073775
  48.6998836  28.4279404  95.3681249  50.2105506  28.3501201  95.4290421
  59.8638990  39.2603724  97.9576185  58.9169326  39.1409075  97.8854512
  60.2121763  38.3726222  98.0402447  52.2238563  25.1497863 101.7814427
  52.7472965  25.3960160 102.5440736  52.0050897  25.9817898 101.3617564
  47.6205845  27.4201538  89.6485552  47.2918551  26.5398916  89.4660658
  47.9745215  27.3649206  90.5361941  56.8685423  39.0556440  94.1580537
  56.7210386  38.1273148  94.3388107  57.6938917  39.0776531  93.6737613
  50.7347668  27.7074507  90.0161030  51.0743740  28.2360429  89.2939638
  51.1819788  28.0454913  90.7919596  60.4719545  39.8784999  95.2445410
  61.3966093  39.6727860  95.1069861  60.3034849  39.6301400  96.1534752
  53.4291109  26.0911558  99.4664098  53.0887929  25.2919371  99.8684778
  52.7230115  26.3913269  98.8940931  54.0807580  23.1760871  97.9191421
  54.9033650  22.7021349  97.7970311  54.3245644  23.9551354  98.4190107
  52.7215815  26.2049129  88.2154322  53.4424177  26.5830382  87.7118039
  52.0981119  26.9238006  88.3189300  56.8646938  26.9094278  89.1512655
  57.0810552  27.7918916  88.8501483  56.3841005  26.5180491  88.4218297
  51.6046159  29.8679991  95.7283399  51.4590740  30.1820294  96.6207681
  51.1271363  30.4864891  95.1754298  53.4642542  26.8582539  95.7764289
  53.4504111  25.9623632  95.4396587  54.1814970  26.8653203  96.4102575
  55.3168673  27.2919879  97.8217416  55.0586451  28.2136950  97.8201747
  54.7853713  26.8950314  98.5117880  60.2614861  40.3970666  90.6007502
  60.4351739  39.8317089  89.8481354  60.7543753  41.1971561  90.4186992
  46.0791821  32.4085336  98.6671060  45.5345289  33.1845144  98.7991335
  46.9571171  32.7556140  98.5090182  52.8679438  25.7396919  91.0451859
  52.9895349  24.8113566  91.2442746  52.5781480  25.7535605  90.1330174
  55.7370628  23.4251830  94.1818579  55.7592325  23.4891163  93.2270558
  56.1538687  22.5856339  94.3759085  66.1154253  33.1607089  92.2197801
  66.5585399  32.4114415  91.8216925  65.2380763  33.1517226  91.8371533
  61.2490034  39.7137431  87.7004400  61.9440939  40.3344124  87.9191715
  61.5913184  38.8632782  87.9756778  46.8657843  31.5355232 101.5601217
  46.1239579  31.6837867 102.1465848  46.5450587  31.7963497 100.6967967
  63.1481457  37.1637136  89.2291731  63.6732781  37.5024409  88.5041051
  63.0603810  36.2284152  89.0454865  54.8101506  41.0771210 101.3581607
  55.1188632  40.8320357 102.2304307  55.6076988  41.2817849 100.8700478
  54.8322118  43.2309120  93.5886984  54.3927108  42.7385498  94.2819841
  55.5830235  42.6882087  93.3479059  47.3114457  39.4220661  93.5911612
  48.1372477  39.1224432  93.2110255  46.9608509  38.6528283  94.0401401
  52.2795990  38.7747129  95.6609286  51.6575999  38.1117834  95.3611513
  52.9500857  38.8008261  94.9782933  45.5123062  37.3406987  94.5500546
  44.6754970  36.9129161  94.3684547  45.4846707  37.5339430  95.4871337
  62.8375363  37.7970040 104.5342929  62.0470907  37.7794179 103.9947428
  62.6008718  38.3358334 105.2891965  62.9573238  34.6462506 101.8475657
  63.0071243  34.4812514 102.7891180  62.8487162  33.7789765 101.4573538
  51.8409497  37.3251052  89.1367746  51.9897617  38.0086517  88.4834419
  52.6475940  37.3056142  89.6517202  60.2477001  30.6293434 103.1634964
  61.1486863  30.4899899 102.8718962  60.3224975  30.7947889 104.1033141
  54.5819806  28.0060289 102.0088150  53.7123115  28.2993855 101.7370739
  54.8179286  28.5900734 102.7295414  64.4591435  37.0659448 102.0917679
  64.1676243  37.4289428 102.9281140  63.8463566  36.3526456 101.9131011
  65.6587117  34.6312328  94.6120249  66.4934009  35.0702132  94.7757809
  65.7946246  34.1550981  93.7928495  62.7078623  32.1892063 100.5597737
  63.1832745  32.3819709  99.7516588  61.7844189  32.2451248 100.3141120
  49.5962130  33.3516230  90.1428815  49.3508172  32.4478560  90.3409025
  49.7658044  33.3533380  89.2008293  57.2858840  24.2239906  99.5253571
  57.8040784  24.9600933  99.2000059  56.9313973  24.5303899 100.3600330
  48.8657777  29.0844587  87.6414976  48.1727022  29.1588942  86.9855012
  48.6209529  28.3204931  88.1636493  57.5371434  20.6440189  95.0454467
  57.8173188  19.9763378  95.6714894  58.3222041  20.8369284  94.5329131
  55.3404902  39.8199183  86.6079494  54.7678869  40.4389370  86.1549965
  55.9137696  40.3698544  87.1419415  61.4080292  29.0657823  98.7926042
  62.3597715  29.1655920  98.8138266  61.2383743  28.2736091  99.3024127
  59.4294672  26.1513406  98.9785443  58.8344604  26.4318419  98.2831932
  59.1444368  26.6407307  99.7502184  58.5602162  40.1036333  87.7388076
  59.4932835  40.0381894  87.9420951  58.4725375  40.9392600  87.2802608
  61.1890179  39.4202203  84.6992023  61.1103810  39.0862067  85.5927781
  62.0099846  39.9123971  84.6983496  63.8868370  32.2863942  97.9068342
  63.8544690  31.3479943  98.0928026  64.4968994  32.3647979  97.1734167
  55.7251701  31.1559995  83.9495546  56.6710806  31.0266203  84.0183964
  55.3465946  30.4174657  84.4264974  64.0362859  29.0774986  97.9526625
  63.5201907  28.2933442  97.7656554  64.9202807  28.7493702  98.1173145
  61.6973585  22.8216001  93.9122438  61.4998407  22.5131090  94.7965770
  62.3073291  23.5477640  94.0420368  69.7044920  33.3479949  97.0474379
  70.4348308  33.0865237  97.6082082  69.0951865  32.6108671  97.0876447
  67.7860217  31.4887812  97.6448830  67.0593381  31.3543777  97.0365322
  67.3707504  31.7964640  98.4505548  55.6090393  35.2077741 105.4096203
  56.5293403  35.3856340 105.6036250  55.5739976  34.2633787 105.2575902
  53.9094618  29.0809972  83.8850431  53.0026073  28.7843084  83.9613145
  54.1870599  28.7839790  83.0184717  44.8272558  30.4016335  94.3349478
  44.5075343  29.5481643  94.0423852  44.2805987  30.6164913  95.0907445
  48.6052466  33.1178776  98.0518984  48.8238476  34.0495884  98.0707018
  49.0178240  32.7586751  98.8373788  55.5256684  23.6246861  90.0394673
  54.7157412  23.2793946  90.4149919  56.2141101  23.3154405  90.6282284
  57.4547232  22.7024908  91.6618969  58.0078271  23.1220362  92.3208992
  57.6917318  21.7760656  91.7041925  52.6793403  25.9396907  84.0262410
  53.5412567  26.2651805  84.2858228  52.8643747  25.1528403  83.5135476
  44.6960818  34.0219247  96.3042599  44.0024290  33.6073199  95.7912554
  45.4433809  34.0639783  95.7076018  60.8326039  24.8125433  91.1697633
  60.2524708  25.4710237  90.7875686  60.5661972  23.9902778  90.7585051
  59.2829606  24.2130491  93.3718954  59.7829384  24.3247026  92.5633273
  59.9265213  23.9091544  94.0119762  53.3411601  32.1209121 106.2586795
  52.8578683  32.9209481 106.4650684  53.4272540  32.1317066 105.3054239
  46.6097561  33.9537500  94.1808614  46.5868249  34.0525188  93.2290497
  46.9198197  34.8002651  94.5025780  49.2684939  36.0113655  98.2955229
  50.2228192  35.9797598  98.2285160  49.0697462  35.5504279  99.1105454
  49.8584321  34.5814771 100.8626026  50.6777210  35.0758850 100.8860863
  50.1321129  33.6646740 100.8343594  59.6150917  26.9725524  90.2253982
  58.7276772  27.2575174  90.0074176  60.0304906  26.8119287  89.3781259
  62.9665453  26.9972045  93.9408321  63.7425843  27.4868497  94.2132938
  62.2413587  27.4230099  94.3980190  65.4038012  27.7099664  94.9982262
  65.9982503  27.4695400  94.2875570  65.4764596  26.9906795  95.6255798
  47.6235168  41.5533275  95.3125426  47.4889636  40.7933676  94.7463424
  47.2067230  42.2774175  94.8454215  58.7594131  36.7370198  84.3202002
  59.4629981  36.9420201  84.9359657  58.0356779  37.3046960  84.5851085
  59.5891941  32.4880060  90.4404272  59.5327142  32.9448611  89.6011904
  60.1420283  31.7270744  90.2627115  63.3996747  28.2769792  91.2654391
  63.1433681  27.8766427  92.0962599  62.7749615  28.9913586  91.1404531
  67.7109085  31.0165865  93.7725683  67.1508643  31.0859054  94.5457245
  67.1052588  30.8406849  93.0525179  50.7804294  42.4502592  95.5243869
  50.6636678  43.3948024  95.4222559  49.9596740  42.1476153  95.9129668
  60.6680828  37.1752728  86.3700462  61.5026432  36.7433926  86.1877937
  60.5065171  37.0034741  87.2977356  60.3226720  33.6784841  87.7356801
  60.2675524  33.5129112  86.7945245  59.6972776  34.3860874  87.8918991
  45.1119235  28.9152905 101.5618223  45.7578099  28.4051859 102.0505448
  44.9036386  29.6521587 102.1361649  57.6372627  35.9833753 107.0610364
  58.5063787  36.1574405 106.6996999  57.1579379  36.8028170 106.9386093
  53.6322846  23.1792950  87.3142119  53.6201516  24.1234790  87.4710390
  54.5246268  22.9963095  87.0201581  51.8058808  43.1030854  98.7399797
  52.7086054  43.1354464  99.0566292  51.5796178  42.1731305  98.7546133
  53.5612410  41.8561840  95.4009876  52.6108041  41.8563702  95.2874248
  53.8644896  41.1094575  94.8845911  57.4474965  19.7735727  91.5688056
  56.6807361  19.2194213  91.7144739  57.8585670  19.8457595  92.4302208
  69.2965103  47.6922379  96.4655638  69.9343513  47.5729126  95.7618979
  69.1785946  48.6403223  96.5243591  66.1054809  47.6449807  96.4017163
  65.7673321  47.5290872  95.5137698  66.9744578  47.2440972  96.3818169
  61.9641625  49.4985283  92.3914054  61.4006490  49.4075220  91.6230342
  61.8494020  48.6785188  92.8716547  66.5874592  48.7984659 102.3603369
  66.5763233  48.4037457 101.4883872  66.7495232  48.0650731 102.9537140
  59.5106057  50.9936475  95.2298275  60.3027349  50.6527300  94.8144574
  59.7502707  51.1031450  96.1500428  67.5441184  53.1656251  87.7028519
  66.8929164  53.7510331  87.3162533  68.3385547  53.6962446  87.7623557
  61.4696811  50.2545388  88.1015653  62.2427687  49.7074375  87.9628529
  61.8222210  51.1189637  88.3130115  63.3081854  51.5821770 101.3082553
  63.0171720  52.4867401 101.1929219  63.9438838  51.6238298 102.0226622
  64.2338060  48.9598619  97.8983912  64.8301633  48.7354641  97.1840875
  64.2913032  48.2183364  98.5009360  63.8063089  46.4138054  85.7334103
  64.0588609  45.8919576  84.9717566  62.8687648  46.2504200  85.8360787
  68.8506372  45.4173833  93.5408847  69.6369461  44.9993256  93.1899264
  69.1145076  46.3219925  93.7090495  69.0216449  50.8546683  88.2397503
  68.3862282  50.9281309  88.9518408  68.6913855  51.4440282  87.5616583
  74.2514799  45.3549066  94.4441825  74.9839971  44.7848283  94.6779655
  73.4954154  44.9670666  94.8848331  63.5259378  48.3166160  87.9358478
  63.4095636  47.6411064  88.6039563  63.6361637  47.8298534  87.1190631
  65.8690918  47.7776307  91.6405167  65.5049126  47.2506928  92.3518089
  66.7258034  47.3874776  91.4671653  71.7740219  39.0670640  98.9036434
  71.4423544  39.9366051  98.6797649  71.1785832  38.7506924  99.5830464
  65.5096405  42.8066207  86.6366516  65.6770808  43.6746443  87.0036987
  65.3193575  42.9693489  85.7127805  68.2671739  51.2683186  98.3032346
  67.9672462  52.1708225  98.1948154  67.9222798  51.0015369  99.1553499
  61.7184220  47.7196983  94.3369051  60.7934717  47.5873197  94.5446743
  61.9668633  48.4991202  94.8338993  71.6668882  43.7865726  95.9829784
  70.7585760  43.7181135  95.6888545  71.6156478  44.2637671  96.8111609
  65.4885626  45.2623864  87.6213183  65.3685252  45.7080915  88.4598663
  64.7938215  45.6109182  87.0626721  59.0793031  47.3630256  95.1712840
  59.2085412  47.6164735  96.0852252  58.3990482  47.9557964  94.8517495
  63.2492518  58.0327506  91.2703314  63.1716548  58.9835331  91.3491795
  62.6454162  57.6873379  91.9278240  65.7409748  45.2055372 103.9264681
  64.9643082  45.7649292 103.9167546  66.3800311  45.6912155 104.4479551
  73.5330529  41.9882164  97.7607658  72.8904909  42.2814698  97.1147452
  73.0285457  41.8735085  98.5660854  71.1870692  45.7345338  88.4493517
  72.0988549  45.9672724  88.2741214  70.6780340  46.3182382  87.8868595
  63.9956121  48.0140825 103.4882648  64.7370805  48.5525869 103.2117472
  63.2893106  48.6407114 103.6454200  69.4711460  50.1569965 102.0854809
  69.8794816  49.7152376 101.3409442  68.7488722  49.5822593 102.3389002
  65.8242530  45.0942572  99.4588366  66.6703725  45.5181986  99.6023015
  65.7641168  44.4376197 100.1526930  69.7940275  50.7171156  95.8407098
  69.1649137  50.8816870  95.1383166  69.4065937  51.1312766  96.6118062
  73.6729507  51.6525594  93.1951462  72.9880545  52.0324495  92.6448495
  73.7573356  52.2620921  93.9283410  68.9741976  42.7546941 101.1169540
  68.7302907  43.5089001 100.5803816  69.2501906  43.1332288 101.9516787
  70.9280438  49.2985553  99.7946806  71.1397334  49.9417313  99.1181187
  70.8810187  48.4647870  99.3268736  68.5306667  41.9103374  96.6983378
  67.6691146  42.2084627  96.9900115  68.5569102  42.1273773  95.7664410
  65.3468237  50.4545564  93.1057183  65.8106582  50.7333267  92.3161806
  65.0825035  49.5529009  92.9230274  62.2392318  50.0017046  96.0436947
  62.8093675  50.4304314  95.4054431  62.8300430  49.7199630  96.7421132
  64.2837123  46.5768717  89.9146749  64.9861166  47.0289760  90.3820675
  63.9517751  45.9352535  90.5426642  62.7317484  45.1680473 104.2897958
  62.1016145  45.8496754 104.5233355  62.6253572  45.0563555 103.3451096
  58.0262457  44.8352269  95.2163882  57.2361511  45.0909798  94.7403993
  58.5173704  45.6500607  95.3215923  72.0426266  52.1757508  97.9669163
  72.8643710  51.7737696  97.6851845  72.0388669  52.0725743  98.9185279
  59.9777202  45.1996848  92.1747359  59.1808365  45.3115543  92.6930855
  59.7502794  45.5383501  91.3088249  65.8082870  51.7241552 100.1229873
  65.8727302  52.1861959 100.9588045  65.0993794  51.0938917 100.2512183
  56.3100160  45.0882760  97.6478873  56.5608198  45.9729770  97.9136449
  56.8459708  44.9087361  96.8753965  80.1332259  48.5196257  94.3154134
  79.3795968  47.9503655  94.1598139  80.2679801  48.4858921  95.2624769
  65.5230887  53.3909659  89.9908854  65.3876562  54.2361195  90.4193702
  66.0640700  53.5928937  89.2274788  62.0098227  39.4701239 106.6523209
  61.6165173  38.9167438 107.3270853  62.8264367  39.7811818 107.0429727
  58.9760285  50.9085097  90.5636779  59.4884805  51.7028347  90.7142344
  59.6282998  50.2111388  90.4970380  60.7855169  54.0250854  92.6459532
  60.9621798  54.9468818  92.4580516  61.5812003  53.7109273  93.0753912
  64.9266188  40.8859118 104.2443466  65.6675901  41.4866271 104.1647928
  65.1584111  40.1436756 103.6861508  60.0707526  46.0715485 102.5221695
  59.9561041  45.1700743 102.8228794  59.2152044  46.3179182 102.1706512
  67.1499364  54.0133226 104.1209196  66.7063218  53.2269604 103.8030100
  67.8116577  54.2012376 103.4553087  61.9086485  55.5429027  98.6469874
  62.4593910  55.4146091  97.8746868  61.0697961  55.8423916  98.2964767
  69.2480602  54.2936026 102.1490597  69.2299077  55.1144907 101.6570866
  70.1700522  54.1690101 102.3740738  65.7053656  51.8080155 102.9914106
  66.2381993  51.0468443 102.7613413  65.1767737  51.5153807 103.7338260
  68.8723351  36.9140221  98.5207747  68.5287620  37.8041863  98.4446858
  69.2402314  36.7241879  97.6577332  56.9409202  49.2373752  91.3396349
  57.7784424  49.6470760  91.1230057  57.1187469  48.2973194  91.3096543
  68.8373634  46.9048832  87.0280182  68.3220257  47.6753437  87.2668570
  68.5650942  46.2313968  87.6513244  66.4220745  41.7498533  92.0865421
  65.5662341  41.3605383  91.9071059  66.8347696  41.8290494  91.2265206
  67.9519891  39.2844876  96.4856981  67.4484687  39.2475011  95.6724786
  68.2450498  40.1937619  96.5453637  64.1962777  39.3683606  95.4923162
  65.0615774  39.1726415  95.1329052  64.2640286  39.1393958  96.4192519
  73.8107908  49.6581187  88.9633356  73.0337351  49.3192346  88.5188518
  74.4899389  49.6633810  88.2888321  68.6259937  44.7775924  88.8539964
  68.3210072  45.0922073  89.7050107  69.5790379  44.8557344  88.8967297
  67.0706369  50.9366148  90.5032918  66.5427730  50.2018907  90.1906155
  66.5693871  51.7140824  90.2572886  72.0499215  49.1315168  95.6199964
  71.3922889  49.8214429  95.7080092  72.8539614  49.5211600  95.9633950
  61.8025096  41.5985814  92.8639529  62.3768848  41.3760995  92.1312722
  62.3896079  41.6674508  93.6168130  70.8604673  47.4859541  93.6703906
  71.3736555  48.1189533  94.1725615  71.5105897  46.8860736  93.3047266
  62.1294683  43.6290275  86.8835414  61.2931996  43.9664961  87.2044689
  61.9899453  43.4939255  85.9462551  64.1047764  38.4727063  91.5914598
  63.4512176  38.1576080  90.9671213  64.0628238  37.8502803  92.3174421
  65.2158969  48.7546358  83.5067891  64.3086031  48.5235611  83.7059040
  65.7130001  47.9583977  83.6941872  68.1227048  57.4643865  86.4264577
  67.4488746  57.7675562  87.0349535  68.5092870  58.2672945  86.0770034
  67.3385504  44.9608996  95.9162246  66.4208066  45.1823943  95.7583934
  67.7545648  45.0355307  95.0573953  68.1220552  46.3600412  91.0464926
  68.8692371  46.8721809  90.7372048  68.3912142  46.0384465  91.9069320
  66.3947202  48.8558953  88.0291881  65.4858422  48.5717986  88.1264350
  66.4242286  49.2758031  87.1695188  71.6266470  52.4665542  91.7983048
  71.1728797  51.6256452  91.8548239  70.9960436  53.1026941  92.1357828
  70.5699389  43.3957528  93.0283716  69.8322146  42.8834914  93.3593958
  70.8226163  42.9557910  92.2166993  70.0699409  54.3042039  92.7332866
  70.3622383  54.8647096  92.0145232  70.5798030  54.5970600  93.4886025
  70.6711017  36.1733780  93.6225485  70.9769893  35.3131144  93.3351400
  71.3963621  36.7651400  93.4224479  56.9635373  46.5764467  92.0107083
  56.7659772  45.9833828  91.2858149  56.4082037  46.2716677  92.7283022
  64.9432096  46.4687573  94.1301676  64.9980706  45.5161410  94.0544153
  64.1323298  46.6247012  94.6142974  66.0923290  50.3967696  85.3679959
  65.6542720  49.6803555  84.9085597  66.8333731  50.6243811  84.8065051
  62.8824456  45.0864633  91.8892055  62.0692322  45.3858804  92.2957247
  63.3783450  44.6920322  92.6066537  65.0333034  55.0822390  93.8226320
  64.9909213  55.3083236  92.8934852  65.9495733  54.8485765  93.9712121
  68.4798668  45.5506458 100.7206949  68.8348056  45.7777931 101.5801415
  69.1270799  45.8824834 100.0984204  74.2096405  48.6724893  91.4256278
  74.0714303  48.8626489  90.4977467  73.8532624  49.4344276  91.8824329
  62.3738531  42.6582989  97.5053290  63.0137910  42.5171748  96.8076253
  61.5416062  42.3717502  97.1291892  74.2365784  50.7401420  96.4367549
  74.6702291  50.6476710  97.2850603  74.9497365  50.7158921  95.7987565
  63.1498835  51.9585419  93.6188282  63.9439433  51.4635739  93.4170857
  62.4390527  51.4303282  93.2555988  67.9693679  54.3403515  97.9700650
  68.0230702  54.9094451  98.7378366  67.1008461  54.5105400  97.6054687
  59.4581598  46.1028501  89.6948035  58.5279186  46.0412956  89.9117997
  59.5539070  45.5804454  88.8984676  59.3767147  42.6283314  92.2826277
  59.6373965  43.5428647  92.1735437  60.1984320  42.1607756  92.4322889
  60.8492073  44.0421071  99.4525101  61.5215126  43.8338433  98.8037750
  60.0221859  43.8443157  99.0130333  75.0981334  50.7825121  98.9700435
  75.2917224  51.6870932  99.2159710  74.9981952  50.3232540  99.8039020
  66.7517645  40.6683012 101.4690762  66.1045560  41.3672961 101.3755238
  67.5218660  41.1019156 101.8367010  70.1596443  50.9331864 104.5441315
  70.0081949  50.7042416 103.6271399  70.1501122  51.8902465 104.5572660
  66.9281779  48.5063777  99.5287582  67.8573839  48.6574936  99.3556549
  66.5072809  48.5947797  98.6736228  65.7270111  52.5314441  97.2986119
  65.5881197  52.1633225  98.1712057  64.9384707  53.0462080  97.1270077
  66.3218263  57.6323537  88.6411656  66.4970019  57.1611581  89.4557279
  65.6351051  58.2589304  88.8692917  67.2775326  51.9096044  94.6874957
  66.9425159  51.8696814  95.5832607  66.7779272  51.2440760  94.2145367
  61.2519570  47.3163674 100.2127538  61.1139368  46.5843913 100.8139077
  62.1624493  47.2272574  99.9311726  70.2134518  49.2552078  84.9612017
  69.5963688  48.5298906  84.8645070  69.7451006  50.0161438  84.6179091
  63.8801871  47.0283633  99.7011218  64.5901489  46.3876825  99.6597836
  63.8371179  47.2796528 100.6237399  71.8688649  53.9650986 102.6217797
  71.8101196  53.2810207 101.9548380  72.2708168  54.7069976 102.1698423
  62.5930805  44.0148851 101.5206857  62.0568162  43.5639589 102.1728454
  62.0047513  44.1494760 100.7777322  60.8879348  60.7812900  95.4151516
  61.1275946  61.4131424  96.0930535  60.0448545  60.4300940  95.7016875
  62.0033064  43.4737502  84.0833321  61.1262530  43.3526303  83.7195568
  62.4790817  42.6823581  83.8312210  71.8706057  51.9290570 100.8531777
  70.9832835  51.5916492 100.9758176  72.4404608  51.1973602 101.0900542
  53.5235204  48.2614662  94.1774828  54.2106244  47.9476392  93.5895844
  53.3683332  49.1656027  93.9042080  58.3269926  43.1504859  98.6059852
  58.2428115  42.5430528  97.8710262  57.5052632  43.6413877  98.6069348
  65.4007210  56.5892023  97.8193020  65.3277382  57.3946994  98.3312325
  64.9584603  56.7883989  96.9941041  65.1896990  55.8263793  91.3295842
  64.4064512  56.3685473  91.4234066  65.8889735  56.3437772  91.7290083
  68.4993640  41.6358422  93.9730047  68.9962339  40.8828385  93.6531117
  67.7280621  41.6722739  93.4073256  76.3523397  47.3398788  95.6148339
  76.3413273  48.2223503  95.2442272  75.4840777  46.9870339  95.4202876
  67.8605894  56.4878857  99.9751179  68.5733866  57.1226322  99.9027080
  67.3695922  56.5842723  99.1591181  69.5823420  50.3930109  91.5468470
  68.6479699  50.5131572  91.3773175  69.7600089  49.4902576  91.2828480
  65.0828609  43.7775805  93.7001732  64.7126396  43.2246846  94.3882637
  65.5787701  43.1733939  93.1476732  72.9695972  46.2347429  92.0818505
  73.4356424  47.0675420  92.0078807  73.4203472  45.7692410  92.7863763
  62.9117807  54.2373300 100.7956750  63.6127267  54.8709783 100.9486144
  62.4412922  54.5788032 100.0352389  71.0372203  52.5791250  89.0804657
  71.3132047  52.4647845  89.9898531  70.1676702  52.1808735  89.0416830
  70.9412635  38.6028016  96.1209406  70.0275714  38.8332243  96.2891613
  71.3705736  38.6866460  96.9723438  70.7119093  46.7917908  98.6209300
  70.0590543  47.0393815  97.9661753  71.0899473  45.9782046  98.2871777
  67.6726267  56.8277601  92.7237470  67.8548661  56.0099257  93.1865223
  68.4959253  57.0445293  92.2862360  68.0068432  55.7545786  89.9852519
  68.5356199  55.2438241  89.3722681  68.2696652  55.4388316  90.8498052
  66.7606666  47.5337719 105.1075337  66.0847303  47.4331848 105.7777712
  67.5834300  47.3776932 105.5711334  58.5085525  53.7709655  97.7287852
  59.0938962  53.0253343  97.8615756  58.3110364  54.0813612  98.6124516
  61.3624180  56.8060903  92.7450295  60.6934556  57.2907030  92.2614335
  61.2237050  57.0530123  93.6593673  53.1003180  46.3415255  96.4492295
  53.1387279  45.8078846  97.2429413  52.5943473  45.8150461  95.8303273
  65.5029449  58.8404646  99.3432953  66.0547757  59.0036268 100.1082038
  65.8435642  59.4309084  98.6712978  60.4793942  41.1879796  99.9454838
  60.5435269  42.0494627  99.5332235  60.4161062  40.5753798  99.2127196
  59.9546215  43.2602928 103.5927872  60.5818254  42.8780006 104.2065396
  59.0974134  43.0417130 103.9583564  70.3540323  53.6665904 105.1981607
  70.8980227  54.2795862 104.7036562  69.7727168  54.2245482 105.7148620
  56.7311757  45.0679358  89.5246227  57.0265199  44.1590036  89.4713280
  55.8299793  45.0467097  89.2027229  68.6397836  56.7886622  96.3296635
  68.5148976  55.9876362  95.8207581  69.2976927  57.2832815  95.8410605
  60.2606004  43.1435354  95.5073775  59.5392590  43.7571322  95.3681249
  61.0499260  43.6793119  95.4290421  70.7032745  54.5895642  97.9576185
  69.7563080  54.4700993  97.8854512  71.0515518  53.7018140  98.0402447
  63.0632318  40.4789781 101.7814427  63.5866720  40.7252077 102.5440736
  62.8444651  41.3109815 101.3617564  58.4599599  42.7493455  89.6485552
  58.1312305  41.8690834  89.4660658  58.8138970  42.6941124  90.5361941
  67.7079178  54.3848358  94.1580537  67.5604140  53.4565065  94.3388107
  68.5332671  54.4068449  93.6737613  61.5741422  43.0366425  90.0161030
  61.9137495  43.5652346  89.2939638  62.0213543  43.3746831  90.7919596
  71.3113300  55.2076917  95.2445410  72.2359847  55.0019778  95.1069861
  71.1428603  54.9593318  96.1534752  64.2684863  41.4203476  99.4664098
  63.9281683  40.6211289  99.8684778  63.5623869  41.7205187  98.8940931
  64.9201335  38.5052788  97.9191421  65.7427404  38.0313266  97.7970311
  65.1639398  39.2843272  98.4190107  63.5609569  41.5341047  88.2154322
  64.2817932  41.9122299  87.7118039  62.9374873  42.2529923  88.3189300
  67.7040692  42.2386196  89.1512655  67.9204307  43.1210833  88.8501483
  67.2234759  41.8472409  88.4218297  62.4439914  45.1971909  95.7283399
  62.2984494  45.5112212  96.6207681  61.9665117  45.8156809  95.1754298
  64.3036296  42.1874457  95.7764289  64.2897865  41.2915550  95.4396587
  65.0208725  42.1945121  96.4102575  66.1562427  42.6211797  97.8217416
  65.8980205  43.5428868  97.8201747  65.6247468  42.2242232  98.5117880
  71.1008616  55.7262584  90.6007502  71.2745493  55.1609007  89.8481354
  71.5937507  56.5263479  90.4186992  56.9185576  47.7377253  98.6671060
  56.3739044  48.5137061  98.7991335  57.7964926  48.0848058  98.5090182
  63.7073192  41.0688837  91.0451859  63.8289104  40.1405483  91.2442746
  63.4175235  41.0827523  90.1330174  66.5764383  38.7543748  94.1818579
  66.5986080  38.8183081  93.2270558  66.9932442  37.9148256  94.3759085
  76.9548007  48.4899007  92.2197801  77.3979153  47.7406332  91.8216925
  76.0774517  48.4809143  91.8371533  72.0883788  55.0429349  87.7004400
  72.7834693  55.6636041  87.9191715  72.4306939  54.1924700  87.9756778
  57.7051598  46.8647150 101.5601217  56.9633334  47.0129785 102.1465848
  57.3844342  47.1255415 100.6967967  73.9875212  52.4929054  89.2291731
  74.5126536  52.8316327  88.5041051  73.8997564  51.5576069  89.0454865
  65.6495260  56.4063128 101.3581607  65.9582387  56.1612274 102.2304307
  66.4470742  56.6109766 100.8700478  65.6715872  58.5601037  93.5886984
  65.2320863  58.0677416  94.2819841  66.4223989  58.0174005  93.3479059
  58.1508211  54.7512578  93.5911612  58.9766231  54.4516350  93.2110255
  57.8002263  53.9820201  94.0401401  63.1189744  54.1039046  95.6609286
  62.4969754  53.4409751  95.3611513  63.7894611  54.1300178  94.9782933
  56.3516816  52.6698905  94.5500546  55.5148725  52.2421079  94.3684547
  56.3240462  52.8631348  95.4871337  63.1914272  42.5820834 105.2541792
  63.2402427  43.4582957 104.8719561  63.7336786  42.0398228 104.6813435
  73.6769118  53.1261958 104.5342929  72.8864661  53.1086097 103.9947428
  73.4402472  53.6650251 105.2891965  73.7966993  49.9754424 101.8475657
  73.8464998  49.8104432 102.7891180  73.6880916  49.1081683 101.4573538
  62.6803251  52.6542970  89.1367746  62.8291372  53.3378434  88.4834419
  63.4869695  52.6348060  89.6517202  71.0870755  45.9585352 103.1634964
  71.9880618  45.8191817 102.8718962  71.1618730  46.1239807 104.1033141
  65.4213560  43.3352207 102.0088150  64.5516870  43.6285773 101.7370739
  65.6573041  43.9192652 102.7295414  75.2985190  52.3951366 102.0917679
  75.0069998  52.7581346 102.9281140  74.6857321  51.6818374 101.9131011
  76.4980872  49.9604245  94.6120249  77.3327763  50.3994049  94.7757809
  76.6340001  49.4842899  93.7928495  73.5472378  47.5183980 100.5597737
  74.0226499  47.7111627  99.7516588  72.6237943  47.5743166 100.3141120
  60.4355884  48.6808147  90.1428815  60.1901926  47.7770477  90.3409025
  60.6051799  48.6825298  89.2008293  68.1252594  39.5531824  99.5253571
  68.6434538  40.2892851  99.2000059  67.7707727  39.8595817 100.3600330
  59.7051532  44.4136505  87.6414976  59.0120777  44.4880860  86.9855012
  59.4603284  43.6496849  88.1636493  68.3765188  35.9732106  95.0454467
  68.6566942  35.3055295  95.6714894  69.1615795  36.1661202  94.5329131
  66.1798657  55.1491100  86.6079494  65.6072624  55.7681287  86.1549965
  66.7531451  55.6990462  87.1419415  72.2474047  44.3949740  98.7926042
  73.1991470  44.4947838  98.8138266  72.0777497  43.6028009  99.3024127
  70.2688426  41.4805324  98.9785443  69.6738358  41.7610336  98.2831932
  69.9838123  41.9699224  99.7502184  69.3995917  55.4328250  87.7388076
  70.3326590  55.3673812  87.9420951  69.3119130  56.2684517  87.2802608
  74.7262125  47.6155860  97.9068342  74.6938445  46.6771861  98.0928026
  75.3362748  47.6939897  97.1734167  66.5645455  46.4851913  83.9495546
  67.5104560  46.3558121  84.0183964  66.1859700  45.7466575  84.4264974
  74.8756613  44.4066903  97.9526625  74.3595662  43.6225360  97.7656554
  75.7596562  44.0785620  98.1173145  72.5367340  38.1507919  93.9122438
  72.3392161  37.8423007  94.7965770  73.1467046  38.8769558  94.0420368
  80.5438674  48.6771867  97.0474379  81.2742063  48.4157155  97.6082082
  79.9345620  47.9400589  97.0876447  78.6253972  46.8179729  97.6448830
  77.8987135  46.6835694  97.0365322  78.2101258  47.1256558  98.4505548
  66.4484148  50.5369659 105.4096203  67.3687157  50.7148258 105.6036250
  66.4133731  49.5925704 105.2575902  64.7488373  44.4101889  83.8850431
  63.8419828  44.1135002  83.9613145  65.0264354  44.1131707  83.0184717
  55.6666313  45.7308253  94.3349478  55.3469097  44.8773561  94.0423852
  55.1199741  45.9456831  95.0907445  59.4446220  48.4470694  98.0518984
  59.6632230  49.3787802  98.0707018  59.8571994  48.0878668  98.8373788
  66.3650438  38.9538779  90.0394673  65.5551167  38.6085864  90.4149919
  67.0534855  38.6446323  90.6282284  68.2940987  38.0316826  91.6618969
  68.8472025  38.4512279  92.3208992  68.5311073  37.1052574  91.7041925
  64.3174086  44.0203900 107.4421733  64.2170813  44.9698256 107.3733824
  64.0995628  43.6922138 106.5697803  63.5187157  41.2688825  84.0262410
  64.3806321  41.5943723  84.2858228  63.7037501  40.4820320  83.5135476
  55.5354573  49.3511164  96.3042599  54.8418044  48.9365117  95.7912554
  56.2827564  49.3931701  95.7076018  71.6719794  40.1417351  91.1697633
  71.0918463  40.8002155  90.7875686  71.4055726  39.3194696  90.7585051
  70.1223360  39.5422409  93.3718954  70.6223138  39.6538943  92.5633273
  70.7658968  39.2383462  94.0119762  64.1805356  47.4501038 106.2586795
  63.6972438  48.2501398 106.4650684  64.2666295  47.4608983 105.3054239
  57.4491315  49.2829418  94.1808614  57.4262004  49.3817105  93.2290497
  57.7591952  50.1294569  94.5025780  60.1078693  51.3405573  98.2955229
  61.0621947  51.3089515  98.2285160  59.9091217  50.8796197  99.1105454
  60.6978075  49.9106689 100.8626026  61.5170964  50.4050768 100.8860863
  60.9714883  48.9938657 100.8343594  70.4544672  42.3017441  90.2253982
  69.5670527  42.5867092  90.0074176  70.8698661  42.1411205  89.3781259
  73.8059208  42.3263962  93.9408321  74.5819598  42.8160415  94.2132938
  73.0807342  42.7522017  94.3980190  76.2431766  43.0391582  94.9982262
  76.8376257  42.7987318  94.2875570  76.3158350  42.3198712  95.6255798
  58.4628922  56.8825193  95.3125426  58.3283390  56.1225593  94.7463424
  58.0460984  57.6066092  94.8454215  69.5987885  52.0662116  84.3202002
  70.3023735  52.2712119  84.9359657  68.8750534  52.6338878  84.5851085
  70.4285695  47.8171977  90.4404272  70.3720897  48.2740529  89.6011904
  70.9814038  47.0562662  90.2627115  74.2390501  43.6061709  91.2654391
  73.9827436  43.2058345  92.0962599  73.6143369  44.3205503  91.1404531
  78.5502839  46.3457782  93.7725683  77.9902397  46.4150972  94.5457245
  77.9446343  46.1698767  93.0525179  61.6198048  57.7794510  95.5243869
  61.5030432  58.7239942  95.4222559  60.7990494  57.4768071  95.9129668
  71.5074583  52.5044645  86.3700462  72.3420186  52.0725844  86.1877937
  71.3458925  52.3326659  87.2977356  71.1620475  49.0076759  87.7356801
  71.1069279  48.8421030  86.7945245  70.5366530  49.7152792  87.8918991
  55.9512990  44.2444823 101.5618223  56.5971853  43.7343777 102.0505448
  55.7430141  44.9813505 102.1361649  68.4766382  51.3125670 107.0610364
  69.3457542  51.4866323 106.6996999  67.9973133  52.1320087 106.9386093
  64.4716600  38.5084868  87.3142119  64.4595270  39.4526708  87.4710390
  65.3640022  38.3255013  87.0201581  62.6452562  58.4322771  98.7399797
  63.5479809  58.4646382  99.0566292  62.4189932  57.5023222  98.7546133
  64.4006164  57.1853758  95.4009876  63.4501795  57.1855620  95.2874248
  64.7038650  56.4386493  94.8845911  68.2868720  35.1027644  91.5688056
  67.5201115  34.5486131  91.7144739  68.6979425  35.1749513  92.4302208
  60.2910481  41.3912440 105.6593237  61.1541942  41.0349245 105.8696562
  59.7175891  41.0526335 106.3468642  80.1358858  63.0214296  96.4655638
  80.7737268  62.9021044  95.7618979  80.0179701  63.9695140  96.5243591
  76.9448564  62.9741725  96.4017163  76.6067075  62.8582789  95.5137698
  77.8138332  62.5732890  96.3818169  72.8035380  64.8277201  92.3914054
  72.2400245  64.7367138  91.6230342  72.6887775  64.0077105  92.8716547
  77.4268347  64.1276576 102.3603369  77.4156988  63.7329375 101.4883872
  77.5888986  63.3942649 102.9537140  70.3499812  66.3228393  95.2298275
  71.1421103  65.9819217  94.8144574  70.5896462  66.4323368  96.1500428
  78.3834938  68.4948169  87.7028519  77.7322918  69.0802249  87.3162533
  79.1779301  69.0254364  87.7623557  72.3090565  65.5837306  88.1015653
  73.0821441  65.0366293  87.9628529  72.6615964  66.4481555  88.3130115
  74.1475608  66.9113688 101.3082553  73.8565474  67.8159319 101.1929219
  74.7832592  66.9530216 102.0226622  75.0731815  64.2890537  97.8983912
  75.6695387  64.0646559  97.1840875  75.1306786  63.5475282  98.5009360
  74.6456843  61.7429972  85.7334103  74.8982364  61.2211493  84.9717566
  73.7081402  61.5796117  85.8360787  79.6900126  60.7465750  93.5408847
  80.4763215  60.3285173  93.1899264  79.9538830  61.6511842  93.7090495
  79.8610203  66.1838601  88.2397503  79.2256036  66.2573227  88.9518408
  79.5307610  66.7732199  87.5616583  85.0908553  60.6840983  94.4441825
  85.8233725  60.1140200  94.6779655  84.3347909  60.2962584  94.8848331
  74.3653132  63.6458078  87.9358478  74.2489390  62.9702981  88.6039563
  74.4755392  63.1590452  87.1190631  76.7084673  63.1068225  91.6405167
  76.3442880  62.5798846  92.3518089  77.5651789  62.7166694  91.4671653
  82.6133974  54.3962558  98.9036434  82.2817298  55.2657969  98.6797649
  82.0179587  54.0798842  99.5830464  79.1065493  66.5975104  98.3032346
  78.8066216  67.5000142  98.1948154  78.7616553  66.3307287  99.1553499
  72.5577975  63.0488900  94.3369051  71.6328471  62.9165115  94.5446743
  72.8062388  63.8283120  94.8338993  82.5062637  59.1157644  95.9829784
  81.5979514  59.0473052  95.6888545  82.4550233  59.5929589  96.8111609
  76.3279381  60.5915782  87.6213183  76.2079006  61.0372833  88.4598663
  75.6331969  60.9401100  87.0626721  69.9186786  62.6922174  95.1712840
  70.0479167  62.9456653  96.0852252  69.2384237  63.2849882  94.8517495
  74.0886273  73.3619424  91.2703314  74.0110303  74.3127249  91.3491795
  73.4847917  73.0165296  91.9278240  76.5803503  60.5347289 103.9264681
  75.8036837  61.0941209 103.9167546  77.2194066  61.0204072 104.4479551
  84.3724283  57.3174082  97.7607658  83.7298664  57.6106615  97.1147452
  83.8679212  57.2027002  98.5660854  82.0264447  61.0637255  88.4493517
  82.9382303  61.2964642  88.2741214  81.5174094  61.6474300  87.8868595
  74.8349875  63.3432743 103.4882648  75.5764559  63.8817787 103.2117472
  74.1286860  63.9699031 103.6454200  80.3105215  65.4861883 102.0854809
  80.7188571  65.0444294 101.3409442  79.5882476  64.9114511 102.3389002
  76.6636285  60.4234490  99.4588366  77.5097480  60.8473903  99.6023015
  76.6034922  59.7668114 100.1526930  80.6334029  66.0463074  95.8407098
  80.0042892  66.2108788  95.1383166  80.2459691  66.4604683  96.6118062
  84.5123261  66.9817512  93.1951462  83.8274299  67.3616413  92.6448495
  84.5967111  67.5912838  93.9283410  79.8135730  58.0838858 101.1169540
  79.5696662  58.8380919 100.5803816  80.0895661  58.4624206 101.9516787
  81.7674193  64.6277471  99.7946806  81.9791088  65.2709231  99.1181187
  81.7203941  63.7939787  99.3268736  79.3700422  57.2395291  96.6983378
  78.5084901  57.5376545  96.9900115  79.3962856  57.4565690  95.7664410
  76.1861991  65.7837482  93.1057183  76.6500337  66.0625185  92.3161806
  75.9218789  64.8820926  92.9230274  73.0786072  65.3308963  96.0436947
  73.6487429  65.7596232  95.4054431  73.6694184  65.0491548  96.7421132
  75.1230877  61.9060634  89.9146749  75.8254921  62.3581678  90.3820675
  74.7911506  61.2644453  90.5426642  73.5711239  60.4972391 104.2897958
  72.9409899  61.1788672 104.5233355  73.4647327  60.3855472 103.3451096
  68.8656211  60.1644187  95.2163882  68.0755265  60.4201715  94.7403993
  69.3567459  60.9792525  95.3215923  82.8820021  67.5049426  97.9669163
  83.7037464  67.1029613  97.6851845  82.8782424  67.4017660  98.9185279
  70.8170957  60.5288766  92.1747359  70.0202120  60.6407460  92.6930855
  70.5896549  60.8675418  91.3088249  76.6476624  67.0533469 100.1229873
  76.7121057  67.5153877 100.9588045  75.9387548  66.4230834 100.2512183
  67.1493914  60.4174677  97.6478873  67.4001953  61.3021687  97.9136449
  67.6853463  60.2379279  96.8753965  90.9726014  63.8488175  94.3154134
  90.2189722  63.2795573  94.1598139  91.1073555  63.8150839  95.2624769
  76.3624642  68.7201577  89.9908854  76.2270317  69.5653113  90.4193702
  76.9034454  68.9220855  89.2274788  72.8491981  54.7993157 106.6523209
  72.4558927  54.2459355 107.3270853  73.6658122  55.1103735 107.0429727
  69.8154039  66.2377015  90.5636779  70.3278560  67.0320265  90.7142344
  70.4676752  65.5403305  90.4970380  71.6248924  69.3542771  92.6459532
  71.8015552  70.2760736  92.4580516  72.4205757  69.0401190  93.0753912
  75.7659942  56.2151036 104.2443466  76.5069656  56.8158189 104.1647928
  75.9977865  55.4728674 103.6861508  70.9101280  61.4007403 102.5221695
  70.7954796  60.4992660 102.8228794  70.0545798  61.6471100 102.1706512
  77.9893118  69.3425143 104.1209196  77.5456972  68.5561522 103.8030100
  78.6510332  69.5304294 103.4553087  72.7480239  70.8720945  98.6469874
  73.2987665  70.7438008  97.8746868  71.9091715  71.1715834  98.2964767
  80.0874356  69.6227943 102.1490597  80.0692832  70.4436824 101.6570866
  81.0094276  69.4982019 102.3740738  76.5447410  67.1372073 102.9914106
  77.0775747  66.3760361 102.7613413  76.0161492  66.8445725 103.7338260
  79.7117105  52.2432139  98.5207747  79.3681375  53.1333780  98.4446858
  80.0796068  52.0533796  97.6577332  67.7802956  64.5665669  91.3396349
  68.6178178  64.9762678  91.1230057  67.9581224  63.6265111  91.3096543
  77.2614499  57.0790451  92.0865421  76.4056096  56.6897301  91.9071059
  77.6741451  57.1582411  91.2265206  78.7913646  54.6136794  96.4856981
  78.2878441  54.5766929  95.6724786  79.0844253  55.5229537  96.5453637
  75.0356532  54.6975524  95.4923162  75.9009528  54.5018332  95.1329052
  75.1034041  54.4685875  96.4192519  84.6501662  64.9873105  88.9633356
  83.8731105  64.6484264  88.5188518  85.3293143  64.9925728  88.2888321
  79.4653691  60.1067842  88.8539964  79.1603827  60.4213991  89.7050107
  80.4184133  60.1849262  88.8967297  77.9100123  66.2658065  90.5032918
  77.3821485  65.5310825  90.1906155  77.4087626  67.0432742  90.2572886
  82.8892969  64.4607086  95.6199964  82.2316644  65.1506347  95.7080092
  83.6933368  64.8503518  95.9633950  72.6418851  56.9277732  92.8639529
  73.2162603  56.7052913  92.1312722  73.2289833  56.9966426  93.6168130
  81.6998428  62.8151458  93.6703906  82.2130310  63.4481450  94.1725615
  82.3499652  62.2152654  93.3047266  72.9688438  58.9582193  86.8835414
  72.1325750  59.2956879  87.2044689  72.8293208  58.8231172  85.9462551
  74.9441518  53.8018980  91.5914598  74.2905931  53.4867998  90.9671213
  74.9021993  53.1794721  92.3174421  78.9620802  72.7935783  86.4264577
  78.2882501  73.0967479  87.0349535  79.3486624  73.5964863  86.0770034
  78.1779259  60.2900914  95.9162246  77.2601820  60.5115861  95.7583934
  78.5939402  60.3647224  95.0573953  78.9614307  61.6892330  91.0464926
  79.7086126  62.2013727  90.7372048  79.2305896  61.3676382  91.9069320
  77.2340957  64.1850870  88.0291881  76.3252176  63.9009903  88.1264350
  77.2636041  64.6049949  87.1695188  82.4660224  67.7957460  91.7983048
  82.0122551  66.9548370  91.8548239  81.8354191  68.4318858  92.1357828
  81.4093144  58.7249446  93.0283716  80.6715901  58.2126832  93.3593958
  81.6619917  58.2849828  92.2166993  80.9093163  69.6333957  92.7332866
  81.2016138  70.1939014  92.0145232  81.4191784  69.9262518  93.4886025
  81.5104771  51.5025698  93.6225485  81.8163648  50.6423061  93.3351400
  82.2357376  52.0943318  93.4224479  67.8029127  61.9056385  92.0107083
  67.6053527  61.3125745  91.2858149  67.2475791  61.6008595  92.7283022
  75.7825851  61.7979491  94.1301676  75.8374461  60.8453327  94.0544153
  74.9717053  61.9538930  94.6142974  73.7218211  60.4156551  91.8892055
  72.9086076  60.7150721  92.2957247  74.2177205  60.0212240  92.6066537
  75.8726789  70.4114308  93.8226320  75.8302967  70.6375154  92.8934852
  76.7889487  70.1777682  93.9712121  79.3192422  60.8798375 100.7206949
  79.6741810  61.1069848 101.5801415  79.9664554  61.2116752 100.0984204
  85.0490159  64.0016811  91.4256278  84.9108058  64.1918407  90.4977467
  84.6926378  64.7636194  91.8824329  73.2132285  57.9874906  97.5053290
  73.8531665  57.8463665  96.8076253  72.3809816  57.7009420  97.1291892
  85.0759539  66.0693338  96.4367549  85.5096046  65.9768627  97.2850603
  85.7891120  66.0450839  95.7987565  73.9892589  67.2877337  93.6188282
  74.7833188  66.7927657  93.4170857  73.2784282  66.7595200  93.2555988
  78.8087434  69.6695432  97.9700650  78.8624456  70.2386369  98.7378366
  77.9402215  69.8397317  97.6054687  70.2975353  61.4320418  89.6948035
  69.3672941  61.3704874  89.9117997  70.3932825  60.9096371  88.8984676
  70.2160902  57.9575231  92.2826277  70.4767719  58.8720565  92.1735437
  71.0378074  57.4899674  92.4322889  71.6885827  59.3712988  99.4525101
  72.3608881  59.1630351  98.8037750  70.8615614  59.1735074  99.0130333
  85.9375089  66.1117039  98.9700435  86.1310979  67.0162849  99.2159710
  85.8375707  65.6524458  99.8039020  77.5911399  55.9974929 101.4690762
  76.9439314  56.6964879 101.3755238  78.3612415  56.4311073 101.8367010
  80.9990197  66.2623782 104.5441315  80.8475704  66.0334333 103.6271399
  80.9894877  67.2194383 104.5572660  77.7675534  63.8355694  99.5287582
  78.6967594  63.9866854  99.3556549  77.3466564  63.9239715  98.6736228
  76.5663865  67.8606359  97.2986119  76.4274951  67.4925143  98.1712057
  75.7778462  68.3753998  97.1270077  77.1612017  72.9615455  88.6411656
  77.3363773  72.4903498  89.4557279  76.4744805  73.5881221  88.8692917
  78.1169081  67.2387961  94.6874957  77.7818913  67.1988731  95.5832607
  77.6173026  66.5732677  94.2145367  72.0913325  62.6455591 100.2127538
  71.9533122  61.9135830 100.8139077  73.0018248  62.5564492  99.9311726
  74.7195625  62.3575551  99.7011218  75.4295244  61.7168743  99.6597836
  74.6764933  62.6088446 100.6237399  82.7082404  69.2942904 102.6217797
  82.6494950  68.6102124 101.9548380  83.1101922  70.0361894 102.1698423
  73.4324559  59.3440769 101.5206857  72.8961916  58.8931507 102.1728454
  72.8441268  59.4786677 100.7777322  71.7273103  76.1104818  95.4151516
  71.9669701  76.7423342  96.0930535  70.8842299  75.7592858  95.7016875
  82.7099811  67.2582488 100.8531777  81.8226590  66.9208410 100.9758176
  83.2798362  66.5265519 101.0900542  64.3628958  63.5906580  94.1774828
  65.0499998  63.2768310  93.5895844  64.2077087  64.4947944  93.9042080
  69.1663680  58.4796776  98.6059852  69.0821869  57.8722446  97.8710262
  68.3446387  58.9705795  98.6069348  76.2400965  71.9183940  97.8193020
  76.1671136  72.7238912  98.3312325  75.7978358  72.1175906  96.9941041
  76.0290744  71.1555710  91.3295842  75.2458266  71.6977391  91.4234066
  76.7283489  71.6729690  91.7290083  79.3387394  56.9650340  93.9730047
  79.8356094  56.2120302  93.6531117  78.5674376  57.0014657  93.4073256
  87.1917152  62.6690705  95.6148339  87.1807028  63.5515421  95.2442272
  86.3234531  62.3162256  95.4202876  78.6999648  71.8170774  99.9751179
  79.4127620  72.4518239  99.9027080  78.2089677  71.9134640  99.1591181
  80.4217175  65.7222027  91.5468470  79.4873454  65.8423490  91.3773175
  80.5993843  64.8194494  91.2828480  75.9222363  59.1067723  93.7001732
  75.5520151  58.5538763  94.3882637  76.4181455  58.5025856  93.1476732
  83.8089726  61.5639346  92.0818505  84.2750178  62.3967338  92.0078807
  84.2597227  61.0984328  92.7863763  73.7511562  69.5665218 100.7956750
  74.4521021  70.2001701 100.9486144  73.2806677  69.9079949 100.0352389
  81.8765957  67.9083168  89.0804657  82.1525801  67.7939762  89.9898531
  81.0070456  67.5100652  89.0416830  81.7806389  53.9319933  96.1209406
  80.8669469  54.1624160  96.2891613  82.2099490  54.0158377  96.9723438
  81.5512848  62.1209825  98.6209300  80.8984298  62.3685733  97.9661753
  81.9293227  61.3073963  98.2871777  78.5120021  72.1569518  92.7237470
  78.6942416  71.3391174  93.1865223  79.3353007  72.3737211  92.2862360
  78.8462187  71.0837704  89.9852519  79.3749953  70.5730158  89.3722681
  79.1090406  70.7680234  90.8498052  77.6000421  62.8629636 105.1075337
  76.9241058  62.7623766 105.7777712  78.4228054  62.7068850 105.5711334
  69.3479280  69.1001573  97.7287852  69.9332716  68.3545261  97.8615756
  69.1504118  69.4105530  98.6124516  72.2017935  72.1352820  92.7450295
  71.5328310  72.6198948  92.2614335  72.0630805  72.3822041  93.6593673
  63.9396934  61.6707173  96.4492295  63.9781034  61.1370764  97.2429413
  63.4337227  61.1442379  95.8303273  76.3423203  74.1696564  99.3432953
  76.8941511  74.3328185 100.1082038  76.6829397  74.7601002  98.6712978
  71.3187697  56.5171714  99.9454838  71.3829023  57.3786545  99.5332235
  71.2554817  55.9045715  99.2127196  70.7939969  58.5894846 103.5927872
  71.4212008  58.2071923 104.2065396  69.9367888  58.3709048 103.9583564
  67.5705512  60.3971275  89.5246227  67.8658953  59.4881954  89.4713280
  66.6693548  60.3759015  89.2027229  79.4791591  72.1178539  96.3296635
  79.3542730  71.3168279  95.8207581  80.1370682  72.6124733  95.8410605
  71.0999759  58.4727272  95.5073775  70.3786345  59.0863240  95.3681249
  71.8893015  59.0085037  95.4290421  81.5426499  69.9187559  97.9576185
  80.5956835  69.7992911  97.8854512  81.8909272  69.0310057  98.0402447
  73.9026072  55.8081698 101.7814427  74.4260474  56.0543995 102.5440736
  73.6838406  56.6401733 101.3617564  69.2993354  58.0785373  89.6485552
  68.9706060  57.1982752  89.4660658  69.6532724  58.0233042  90.5361941
  78.5472932  69.7140276  94.1580537  78.3997895  68.7856983  94.3388107
  79.3726426  69.7360366  93.6737613  72.4135177  58.3658343  90.0161030
  72.7531249  58.8944264  89.2939638  72.8607297  58.7038749  90.7919596
  82.1507054  70.5368834  95.2445410  83.0753602  70.3311696  95.1069861
  81.9822358  70.2885236  96.1534752  75.1078618  56.7495393  99.4664098
  74.7675438  55.9503207  99.8684778  74.4017624  57.0497104  98.8940931
  75.7595089  53.8344706  97.9191421  76.5821159  53.3605184  97.7970311
  76.0033153  54.6135190  98.4190107  74.4003324  56.8632964  88.2154322
  75.1211686  57.2414217  87.7118039  73.7768628  57.5821841  88.3189300
  78.5434447  57.5678113  89.1512655  78.7598061  58.4502751  88.8501483
  78.0628514  57.1764327  88.4218297  73.2833668  60.5263827  95.7283399
  73.1378249  60.8404130  96.6207681  72.8058872  61.1448727  95.1754298
  75.1430051  57.5166375  95.7764289  75.1291620  56.6207468  95.4396587
  75.8602479  57.5237038  96.4102575  76.9956182  57.9503715  97.8217416
  76.7373960  58.8720785  97.8201747  76.4641222  57.5534149  98.5117880
  81.9402370  71.0554502  90.6007502  82.1139248  70.4900924  89.8481354
  82.4331262  71.8555397  90.4186992  67.7579330  63.0669171  98.6671060
  67.2132798  63.8428979  98.7991335  68.6358680  63.4139975  98.5090182
  74.5466947  56.3980755  91.0451859  74.6682858  55.4697401  91.2442746
  74.2568989  56.4119441  90.1330174  77.4158137  54.0835665  94.1818579
  77.4379834  54.1474998  93.2270558  77.8326196  53.2440174  94.3759085
  87.7941762  63.8190925  92.2197801  88.2372908  63.0698250  91.8216925
  86.9168272  63.8101061  91.8371533  82.9277543  70.3721266  87.7004400
  83.6228448  70.9927959  87.9191715  83.2700693  69.5216617  87.9756778
  68.5445352  62.1939067 101.5601217  67.8027088  62.3421703 102.1465848
  68.2238096  62.4547333 100.6967967  84.8268966  67.8220972  89.2291731
  85.3520290  68.1608245  88.5041051  84.7391319  66.8867987  89.0454865
  76.4889015  71.7355045 101.3581607  76.7976141  71.4904192 102.2304307
  77.2864497  71.9401684 100.8700478  76.5109627  73.8892955  93.5886984
  76.0714617  73.3969334  94.2819841  77.2617744  73.3465923  93.3479059
  68.9901966  70.0804496  93.5911612  69.8159986  69.7808268  93.2110255
  68.6396018  69.3112118  94.0401401  73.9583499  69.4330964  95.6609286
  73.3363508  68.7701669  95.3611513  74.6288366  69.4592096  94.9782933
  67.1910571  67.9990822  94.5500546  66.3542479  67.5712997  94.3684547
  67.1634216  68.1923266  95.4871337  74.0308026  57.9112752 105.2541792
  74.0796182  58.7874875 104.8719561  74.5730541  57.3690145 104.6813435
  84.6360747  65.3046342 101.8475657  84.6858752  65.1396349 102.7891180
  84.5274671  64.4373601 101.4573538  73.5197006  67.9834887  89.1367746
  73.6685126  68.6670352  88.4834419  74.3263449  67.9639978  89.6517202
  81.9264510  61.2877270 103.1634964  82.8274372  61.1483735 102.8718962
  82.0012484  61.4531725 104.1033141  76.2607315  58.6644125 102.0088150
  75.3910624  58.9577691 101.7370739  76.4966795  59.2484570 102.7295414
  86.1378944  67.7243283 102.0917679  85.8463752  68.0873264 102.9281140
  85.5251075  67.0110292 101.9131011  87.3374626  65.2896163  94.6120249
  88.1721518  65.7285967  94.7757809  87.4733755  64.8134816  93.7928495
  84.3866132  62.8475898 100.5597737  84.8620254  63.0403544  99.7516588
  83.4631698  62.9035084 100.3141120  71.2749639  64.0100065  90.1428815
  71.0295681  63.1062395  90.3409025  71.4445553  64.0117216  89.2008293
  78.9646349  54.8823741  99.5253571  79.4828293  55.6184768  99.2000059
  78.6101482  55.1887735 100.3600330  70.5445286  59.7428423  87.6414976
  69.8514531  59.8172778  86.9855012  70.2997038  58.9788766  88.1636493
  79.2158943  51.3024024  95.0454467  79.4960697  50.6347213  95.6714894
  80.0009550  51.4953120  94.5329131  77.0192411  70.4783018  86.6079494
  76.4466378  71.0973205  86.1549965  77.5925205  71.0282380  87.1419415
  83.0867801  59.7241658  98.7926042  84.0385224  59.8239756  98.8138266
  82.9171252  58.9319927  99.3024127  81.1082181  56.8097241  98.9785443
  80.5132113  57.0902254  98.2831932  80.8231877  57.2991142  99.7502184
  80.2389671  70.7620168  87.7388076  81.1720344  70.6965730  87.9420951
  80.1512884  71.5976435  87.2802608  82.8677688  70.0786038  84.6992023
  82.7891319  69.7445902  85.5927781  83.6887355  70.5707806  84.6983496
  85.5655879  62.9447778  97.9068342  85.5332199  62.0063778  98.0928026
  86.1756503  63.0231814  97.1734167  85.7150368  59.7358821  97.9526625
  85.1989416  58.9517278  97.7656554  86.5990316  59.4077538  98.1173145
  83.3761094  53.4799837  93.9122438  83.1785916  53.1714925  94.7965770
  83.9860800  54.2061476  94.0420368  91.3832429  64.0063785  97.0474379
  92.1135817  63.7449073  97.6082082  90.7739374  63.2692506  97.0876447
  89.4647726  62.1471647  97.6448830  88.7380890  62.0127612  97.0365322
  89.0495013  62.4548476  98.4505548  77.2877902  65.8661577 105.4096203
  78.2080912  66.0440176 105.6036250  77.2527485  64.9217622 105.2575902
  66.5060067  61.0600170  94.3349478  66.1862852  60.2065479  94.0423852
  65.9593496  61.2748749  95.0907445  70.2839975  63.7762611  98.0518984
  70.5025985  64.7079719  98.0707018  70.6965749  63.4170586  98.8373788
  77.2044193  54.2830697  90.0394673  76.3944921  53.9377782  90.4149919
  77.8928610  53.9738241  90.6282284  79.1334741  53.3608744  91.6618969
  79.6865780  53.7804197  92.3208992  79.3704827  52.4344492  91.7041925
  75.1567840  59.3495817 107.4421733  75.0564567  60.2990174 107.3733824
  74.9389382  59.0214056 106.5697803  66.3748327  64.6803082  96.3042599
  65.6811799  64.2657035  95.7912554  67.1221318  64.7223618  95.7076018
  82.5113548  55.4709269  91.1697633  81.9312217  56.1294073  90.7875686
  82.2449481  54.6486613  90.7585051  80.9617115  54.8714326  93.3718954
  81.4616893  54.9830861  92.5633273  81.6052722  54.5675379  94.0119762
  75.0199110  62.7792956 106.2586795  74.5366192  63.5793316 106.4650684
  75.1060049  62.7900901 105.3054239  68.2885070  64.6121336  94.1808614
  68.2655758  64.7109023  93.2290497  68.5985706  65.4586487  94.5025780
  70.9472448  66.6697491  98.2955229  71.9015701  66.6381433  98.2285160
  70.7484971  66.2088115  99.1105454  71.5371830  65.2398607 100.8626026
  72.3564719  65.7342685 100.8860863  71.8108638  64.3230575 100.8343594
  81.2938426  57.6309359  90.2253982  80.4064281  57.9159010  90.0074176
  81.7092415  57.4703122  89.3781259  84.6452962  57.6555880  93.9408321
  85.4213352  58.1452333  94.2132938  83.9201096  58.0813934  94.3980190
  87.0825521  58.3683499  94.9982262  87.6770012  58.1279235  94.2875570
  87.1552105  57.6490630  95.6255798  69.3022677  72.2117110  95.3125426
  69.1677145  71.4517511  94.7463424  68.8854739  72.9358010  94.8454215
  81.2679450  63.1463895  90.4404272  81.2114651  63.6032446  89.6011904
  81.8207792  62.3854580  90.2627115  85.0784256  58.9353627  91.2654391
  84.8221190  58.5350263  92.0962599  84.4537124  59.6497421  91.1404531
  89.3896594  61.6749700  93.7725683  88.8296152  61.7442889  94.5457245
  88.7840097  61.4990685  93.0525179  72.4591802  73.1086427  95.5243869
  72.3424187  74.0531860  95.4222559  71.6384249  72.8059989  95.9129668
  82.3468337  67.8336563  86.3700462  83.1813941  67.4017761  86.1877937
  82.1852680  67.6618577  87.2977356  82.0014229  64.3368676  87.7356801
  81.9463033  64.1712948  86.7945245  81.3760284  65.0444709  87.8918991
  66.7906744  59.5736741 101.5618223  67.4365608  59.0635695 102.0505448
  66.5823895  60.3105422 102.1361649  75.3110355  53.8376785  87.3142119
  75.2989025  54.7818625  87.4710390  76.2033777  53.6546931  87.0201581
  73.4846317  73.7614689  98.7399797  74.3873563  73.7938299  99.0566292
  73.2583687  72.8315140  98.7546133  75.2399919  72.5145676  95.4009876
  74.2895550  72.5147537  95.2874248  75.5432405  71.7678410  94.8845911
  79.1262474  50.4319562  91.5688056  78.3594870  49.8778049  91.7144739
  79.5373179  50.5041431  92.4302208  71.1304235  56.7204358 105.6593237
  71.9935697  56.3641163 105.8696562  70.5569646  56.3818253 106.3468642
  83.6429134  80.1569119  92.3914054  83.0793999  80.0659056  91.6230342
  83.5281529  79.3369023  92.8716547  81.1893566  81.6520310  95.2298275
  81.9814858  81.3111135  94.8144574  81.4290216  81.7615285  96.1500428
  89.2228693  83.8240086  87.7028519  88.5716673  84.4094167  87.3162533
  90.0173056  84.3546281  87.7623557  83.1484320  80.9129223  88.1015653
  83.9215196  80.3658211  87.9628529  83.5009719  81.7773473  88.3130115
  85.4850598  77.0721890  85.7334103  85.7376118  76.5503411  84.9717566
  84.5475157  76.9088035  85.8360787  90.5293881  76.0757668  93.5408847
  91.3156970  75.6577091  93.1899264  90.7932585  76.9803760  93.7090495
  90.7003958  81.5130518  88.2397503  90.0649791  81.5865145  88.9518408
  90.3701364  82.1024117  87.5616583  85.2046887  78.9749996  87.9358478
  85.0883145  78.2994899  88.6039563  85.3149146  78.4882369  87.1190631
  87.5478427  78.4360143  91.6405167  87.1836635  77.9090764  92.3518089
  88.4045543  78.0458612  91.4671653  87.1883914  73.4650042  86.6366516
  87.3558317  74.3330279  87.0036987  86.9981084  73.6277324  85.7127805
  83.3971729  78.3780818  94.3369051  82.4722226  78.2457032  94.5446743
  83.6456142  79.1575037  94.8338993  87.1673135  75.9207700  87.6213183
  87.0472761  76.3664751  88.4598663  86.4725724  76.2693018  87.0626721
  80.7580540  78.0214092  95.1712840  80.8872921  78.2748571  96.0852252
  80.0777991  78.6141800  94.8517495  92.8658201  76.3929173  88.4493517
  93.7776058  76.6256560  88.2741214  92.3567849  76.9766217  87.8868595
  90.2094176  72.5687209  96.6983378  89.3478655  72.8668463  96.9900115
  90.2356611  72.7857608  95.7664410  87.0255746  81.1129400  93.1057183
  87.4894091  81.3917103  92.3161806  86.7612544  80.2112844  92.9230274
  85.9624632  77.2352552  89.9146749  86.6648675  77.6873596  90.3820675
  85.6305260  76.5936371  90.5426642  79.7049966  75.4936105  95.2163882
  78.9149020  75.7493633  94.7403993  80.1961213  76.3084442  95.3215923
  81.6564711  75.8580684  92.1747359  80.8595874  75.9699378  92.6930855
  81.4290303  76.1967336  91.3088249  77.9887669  75.7466595  97.6478873
  78.2395707  76.6313605  97.9136449  78.5247217  75.5671197  96.8753965
  87.2018396  84.0493495  89.9908854  87.0664071  84.8945030  90.4193702
  87.7428209  84.2512772  89.2274788  80.6547794  81.5668933  90.5636779
  81.1672314  82.3612183  90.7142344  81.3070507  80.8695223  90.4970380
  82.4642678  84.6834689  92.6459532  82.6409307  85.6052654  92.4580516
  83.2599512  84.3693108  93.0753912  90.5510860  67.5724056  98.5207747
  90.2075129  68.4625698  98.4446858  90.9189823  67.3825714  97.6577332
  78.6196711  79.8957587  91.3396349  79.4571933  80.3054595  91.1230057
  78.7974978  78.9557029  91.3096543  90.5161143  77.5632668  87.0280182
  90.0007766  78.3337272  87.2668570  90.2438451  76.8897804  87.6513244
  88.1008254  72.4082368  92.0865421  87.2449850  72.0189219  91.9071059
  88.5135205  72.4874329  91.2265206  89.6307400  69.9428712  96.4856981
  89.1272196  69.9058847  95.6724786  89.9238007  70.8521454  96.5453637
  85.8750286  70.0267441  95.4923162  86.7403283  69.8310250  95.1329052
  85.9427795  69.7977793  96.4192519  95.4895417  80.3165022  88.9633356
  94.7124860  79.9776182  88.5188518  96.1686898  80.3217645  88.2888321
  90.3047446  75.4359760  88.8539964  89.9997581  75.7505909  89.7050107
  91.2577888  75.5141180  88.8967297  88.7493878  81.5949983  90.5032918
  88.2215239  80.8602743  90.1906155  88.2481380  82.3724659  90.2572886
  83.4812605  72.2569649  92.8639529  84.0556357  72.0344831  92.1312722
  84.0683588  72.3258344  93.6168130  83.8082192  74.2874110  86.8835414
  82.9719505  74.6248797  87.2044689  83.6686962  74.1523090  85.9462551
  85.7835273  69.1310898  91.5914598  85.1299685  68.8159915  90.9671213
  85.7415747  68.5086639  92.3174421  86.8946478  79.4130193  83.5067891
  85.9873540  79.1819447  83.7059040  87.3917510  78.6167812  83.6941872
  89.8014557  88.1227700  86.4264577  89.1276255  88.4259397  87.0349535
  90.1880379  88.9256781  86.0770034  89.0173013  75.6192832  95.9162246
  88.0995575  75.8407779  95.7583934  89.4333157  75.6939142  95.0573953
  89.8008061  77.0184247  91.0464926  90.5479880  77.5305645  90.7372048
  90.0699651  76.6968300  91.9069320  88.0734711  79.5142788  88.0291881
  87.1645931  79.2301821  88.1264350  88.1029795  79.9341867  87.1695188
  92.2486898  74.0541364  93.0283716  91.5109655  73.5418750  93.3593958
  92.5013672  73.6141745  92.2166993  92.3498526  66.8317616  93.6225485
  92.6557402  65.9714979  93.3351400  93.0751130  67.4235236  93.4224479
  78.6422882  77.2348302  92.0107083  78.4447281  76.6417663  91.2858149
  78.0869546  76.9300512  92.7283022  86.6219605  77.1271409  94.1301676
  86.6768215  76.1745245  94.0544153  85.8110807  77.2830848  94.6142974
  87.7710799  81.0551532  85.3679959  87.3330229  80.3387391  84.9085597
  88.5121240  81.2827647  84.8065051  84.5611965  75.7448468  91.8892055
  83.7479831  76.0442639  92.2957247  85.0570959  75.3504157  92.6066537
  95.8883914  79.3308729  91.4256278  95.7501812  79.5210325  90.4977467
  95.5320133  80.0928112  91.8824329  84.0526040  73.3166824  97.5053290
  84.6925419  73.1755583  96.8076253  83.2203571  73.0301337  97.1291892
  84.8286344  82.6169254  93.6188282  85.6226942  82.1219575  93.4170857
  84.1178036  82.0887118  93.2555988  81.1369107  76.7612336  89.6948035
  80.2066695  76.6996792  89.9117997  81.2326579  76.2388289  88.8984676
  81.0554656  73.2867149  92.2826277  81.3161474  74.2012482  92.1735437
  81.8771829  72.8191592  92.4322889  82.5279582  74.7004906  99.4525101
  83.2002635  74.4922268  98.8037750  81.7009368  74.5026992  99.0130333
  88.0005772  88.2907373  88.6411656  88.1757528  87.8195416  89.4557279
  87.3138560  88.9173139  88.8692917  91.8922027  79.9135913  84.9612017
  91.2751197  79.1882742  84.8645070  91.4238515  80.6745274  84.6179091
  83.6820573  74.1321338  84.0833321  82.8050039  74.0110138  83.7195568
  84.1578326  73.3407416  83.8312210  75.2022713  78.9198497  94.1774828
  75.8893753  78.6060227  93.5895844  75.0470841  79.8239862  93.9042080
  80.0057435  73.8088694  98.6059852  79.9215624  73.2014364  97.8710262
  79.1840141  74.2997712  98.6069348  90.1781149  72.2942258  93.9730047
  90.6749848  71.5412220  93.6531117  89.4068130  72.3306574  93.4073256
  91.2610929  81.0513945  91.5468470  90.3267208  81.1715407  91.3773175
  91.4387598  80.1486412  91.2828480  86.7616117  74.4359641  93.7001732
  86.3913905  73.8830681  94.3882637  87.2575210  73.8317774  93.1476732
  94.6483481  76.8931264  92.0818505  95.1143933  77.7259256  92.0078807
  95.0990981  76.4276246  92.7863763  92.7159712  83.2375085  89.0804657
  92.9919556  83.1231680  89.9898531  91.8464211  82.8392570  89.0416830
  92.6200144  69.2611851  96.1209406  91.7063223  69.4916078  96.2891613
  93.0493245  69.3450295  96.9723438  89.6855941  86.4129621  89.9852519
  90.2143708  85.9022076  89.3722681  89.9484161  86.0972152  90.8498052
  74.7790689  76.9999091  96.4492295  74.8174788  76.4662681  97.2429413
  74.2730982  76.4734296  95.8303273  82.1581451  71.8463631  99.9454838
  82.2222778  72.7078462  99.5332235  82.0948571  71.2337633  99.2127196
  78.4099266  75.7263193  89.5246227  78.7052708  74.8173871  89.4713280
  77.5087302  75.7050932  89.2027229  81.9393513  73.8019190  95.5073775
  81.2180099  74.4155157  95.3681249  82.7286769  74.3376954  95.4290421
  80.1387108  73.4077291  89.6485552  79.8099814  72.5274670  89.4660658
  80.4926479  73.3524959  90.5361941  83.2528931  73.6950260  90.0161030
  83.5925004  74.2236182  89.2939638  83.7001052  74.0330667  90.7919596
  85.9472372  72.0787311  99.4664098  85.6069192  71.2795124  99.8684778
  85.2411378  72.3789022  98.8940931  86.5988844  69.1636624  97.9191421
  87.4214913  68.6897102  97.7970311  86.8426907  69.9427107  98.4190107
  85.2397078  72.1924882  88.2154322  85.9605441  72.5706135  87.7118039
  84.6162382  72.9113759  88.3189300  89.3828201  72.8970031  89.1512655
  89.5991816  73.7794669  88.8501483  88.9022268  72.5056244  88.4218297
  84.1227423  75.8555744  95.7283399  83.9772003  76.1696047  96.6207681
  83.6452626  76.4740645  95.1754298  85.9823805  72.8458292  95.7764289
  85.9685374  71.9499385  95.4396587  86.6996234  72.8528956  96.4102575
  87.8349936  73.2795632  97.8217416  87.5767714  74.2012703  97.8201747
  87.3034977  72.8826067  98.5117880  78.5973085  78.3961089  98.6671060
  78.0526553  79.1720897  98.7991335  79.4752435  78.7431893  98.5090182
  85.3860701  71.7272672  91.0451859  85.5076613  70.7989319  91.2442746
  85.0962744  71.7411358  90.1330174  88.2551892  69.4127583  94.1818579
  88.2773589  69.4766916  93.2270558  88.6719951  68.5732092  94.3759085
  93.7671297  85.7013184  87.7004400  94.4622202  86.3219877  87.9191715
  94.1094448  84.8508535  87.9756778  95.6662721  83.1512889  89.2291731
  96.1914045  83.4900162  88.5041051  95.5785073  82.2159905  89.0454865
  79.8295720  85.4096414  93.5911612  80.6553740  85.1100185  93.2110255
  79.4789772  84.6404036  94.0401401  78.0304325  83.3282740  94.5500546
  77.1936234  82.9004914  94.3684547  78.0027971  83.5215183  95.4871337
  84.3590760  83.3126805  89.1367746  84.5078881  83.9962270  88.4834419
  85.1657204  83.2931895  89.6517202  82.1143393  79.3391983  90.1428815
  81.8689435  78.4354313  90.3409025  82.2839308  79.3409133  89.2008293
  81.3839041  75.0720340  87.6414976  80.6908286  75.1464695  86.9855012
  81.1390793  74.3080684  88.1636493  90.0552697  66.6315942  95.0454467
  90.3354451  65.9639131  95.6714894  90.8403304  66.8245037  94.5329131
  87.8586166  85.8074936  86.6079494  87.2860133  86.4265123  86.1549965
  88.4318960  86.3574297  87.1419415  91.0783426  86.0912086  87.7388076
  92.0114099  86.0257647  87.9420951  90.9906638  86.9268353  87.2802608
  93.7071442  85.4077956  84.6992023  93.6285074  85.0737820  85.5927781
  94.5281109  85.8999724  84.6983496  88.2432964  77.1435748  83.9495546
  89.1892069  77.0141956  84.0183964  87.8647209  76.4050410  84.4264974
  94.2154849  68.8091754  93.9122438  94.0179670  68.5006843  94.7965770
  94.8254554  69.5353393  94.0420368  86.4275882  75.0685725  83.8850431
  85.5207337  74.7718837  83.9613145  86.7051863  74.7715543  83.0184717
  77.3453822  76.3892088  94.3349478  77.0256606  75.5357396  94.0423852
  76.7987250  76.6040666  95.0907445  88.0437947  69.6122614  90.0394673
  87.2338676  69.2669699  90.4149919  88.7322364  69.3030158  90.6282284
  89.9728496  68.6900661  91.6618969  90.5259534  69.1096115  92.3208992
  90.2098582  67.7636409  91.7041925  85.1974666  71.9272660  84.0262410
  86.0593830  72.2527558  84.2858228  85.3825010  71.1404156  83.5135476
  77.2142082  80.0095000  96.3042599  76.5205553  79.5948952  95.7912554
  77.9615073  80.0515536  95.7076018  93.3507303  70.8001186  91.1697633
  92.7705972  71.4585990  90.7875686  93.0843235  69.9778531  90.7585051
  91.8010869  70.2006244  93.3718954  92.3010647  70.3122779  92.5633273
  92.4446477  69.8967297  94.0119762  79.1278824  79.9413253  94.1808614
  79.1049513  80.0400941  93.2290497  79.4379461  80.7878404  94.5025780
  92.1332181  72.9601277  90.2253982  91.2458036  73.2450927  90.0074176
  92.5486170  72.7995040  89.3781259  95.4846717  72.9847798  93.9408321
  96.2607107  73.4744250  94.2132938  94.7594851  73.4105852  94.3980190
  91.2775394  82.7245951  84.3202002  91.9811244  82.9295954  84.9359657
  90.5538043  83.2922713  84.5851085  92.1073204  78.4755813  90.4404272
  92.0508406  78.9324364  89.6011904  92.6601547  77.7146497  90.2627115
  95.9178010  74.2645545  91.2654391  95.6614945  73.8642180  92.0962599
  95.2930878  74.9789339  91.1404531  93.1862092  83.1628481  86.3700462
  94.0207695  82.7309679  86.1877937  93.0246434  82.9910494  87.2977356
  92.8407984  79.6660594  87.7356801  92.7856787  79.5004865  86.7945245
  92.2154039  80.3736627  87.8918991  86.1504109  69.1668703  87.3142119
  86.1382779  70.1110543  87.4710390  87.0427531  68.9838848  87.0201581
  89.9656229  65.7611480  91.5688056  89.1988624  65.2069966  91.7144739
  90.3766934  65.8333348  92.4302208  94.5214327  89.4613255  84.0833321
  93.6443793  89.3402056  83.7195568  94.9972080  88.6699334  83.8312210
  97.2669636  90.3977642  83.8850431  96.3601091  90.1010755  83.9613145
  97.5445617  90.1007460  83.0184717  96.0368421  87.2564578  84.0262410
  96.8987585  87.5819476  84.2858228  96.2218765  86.4696074  83.5135476
  96.9897864  84.4960621  87.3142119  96.9776533  85.4402461  87.4710390
  97.8821286  84.3130766  87.0201581  40.2854117  -4.1536429  79.1159361
  39.7218983  -4.2446493  78.3475649  40.1706512  -4.9736525  79.5961853
  45.8653676  -0.4865462  74.4273826  45.2141656   0.0988619  74.0407839
  46.6598039   0.0440733  74.4868863  39.7909303  -3.3976325  74.8260960
  40.5640179  -3.9447338  74.6873836  40.1434702  -2.5332075  75.0375421
  47.3428941  -2.7975030  74.9642810  46.7074774  -2.7240403  75.6763715
  47.0126348  -2.2081431  74.2861889  41.8471870  -5.3355553  74.6603785
  41.7308128  -6.0110649  75.3284869  41.9574130  -5.8223179  73.8435938
  44.1903411  -5.8745405  78.3650474  43.8261618  -6.4014784  79.0763396
  45.0470527  -6.2646936  78.1916960  41.5705011   4.3805793  77.9948621
  41.4929040   5.3313619  78.0737101  40.9666654   4.0351666  78.6523547
  48.1152767  -2.9350557  82.5652405  47.4861630  -2.7704843  81.8628473
  47.7278429  -2.5208947  83.3363369  51.9941999  -1.9996119  79.9196769
  51.3093037  -1.6197217  79.3693802  52.0785848  -1.3900792  80.6528716
  43.6680729  -3.1976149  79.8302490  44.1319074  -2.9188446  79.0407113
  43.4037527  -4.0992704  79.6475581  50.3638759  -1.4764204  84.6914470
  51.1856202  -1.8784017  84.4097151  50.3601161  -1.5795970  85.6430585
  43.8443380  -0.2612054  76.7154160  43.7089054   0.5839482  77.1439008
  44.3853192  -0.0592776  75.9520094  37.2972777  -2.7436616  77.2882086
  37.8097298  -1.9493365  77.4387650  37.9495490  -3.4410325  77.2215687
  39.1067662   0.3729141  79.3704839  39.2834290   1.2947105  79.1825823
  39.9024495   0.0587560  79.7999218  40.2298977   1.8907315  85.3715181
  40.7806402   1.7624378  84.5992175  39.3910453   2.1902204  85.0210074
  35.2621694  -4.4147961  78.0641656  36.0996916  -4.0050953  77.8475364
  35.4399962  -5.3548519  78.0341850  45.3918861  -2.7155565  77.2278224
  44.8640223  -3.4502806  76.9151462  44.8906364  -1.9380889  76.9818193
  50.3711707  -4.5206545  82.3445270  49.7135381  -3.8307283  82.4325399
  51.1752106  -4.1310113  82.6879257  43.5371461  -4.8975355  70.2313197
  42.6298523  -5.1286101  70.4304346  44.0342493  -5.6937736  70.4187179
  46.4439540   3.8122152  73.1509883  45.7701239   4.1153849  73.7594841
  46.8305362   4.6151233  72.8015340  44.7159695  -4.7962760  74.7537187
  43.8070914  -5.0803727  74.8509657  44.7454778  -4.3763681  73.8940494
  49.9478962  -1.1856171  78.5228355  49.4941289  -2.0265261  78.5793545
  49.3172929  -0.5494772  78.8603135  48.3911901   0.6520326  79.4578173
  48.6834876   1.2125383  78.7390539  48.9010522   0.9448887  80.2131332
  44.4135782  -3.2554016  72.0925266  43.9755212  -3.9718157  71.6330903
  45.1546223  -3.0277902  71.5310357  43.3545526   1.4300677  80.5471626
  43.3121705   1.6561524  79.6180158  44.2708225   1.1964052  80.6957427
  52.5578277  -2.9120292  83.1612856  52.9914783  -3.0045003  84.0095910
  53.2709857  -2.9362792  82.5232872  41.4711327  -1.6936294  80.3433589
  42.2651926  -2.1885974  80.1416164  40.7603020  -2.2218431  79.9801294
  46.2906172   0.6881802  84.6945957  46.3443194   1.2572738  85.4623672
  45.4220953   0.8583687  84.3299994  37.7794091  -7.5493212  76.4193342
  36.8491679  -7.6108757  76.6363304  37.8751563  -8.0717259  75.6229983
  53.4193826  -2.8696592  85.6945741  53.6129716  -1.9650781  85.9405016
  53.3194444  -3.3289173  86.5284326  44.0482603  -1.1207272  84.0231426
  43.9093689  -1.4888487  84.8957364  43.2597199  -0.6059632  83.8515384
  44.6430755   3.9801825  75.3656963  44.8182511   3.5089868  76.1802585
  43.9563543   4.6067591  75.5938223  45.5987818  -1.7425669  81.4120264
  45.2637651  -1.7824899  82.3077914  45.0991764  -2.4080953  80.9390674
  48.5347010  -4.3969635  71.6857323  47.9176181  -5.1222807  71.5890376
  48.0663498  -3.6360274  71.3424398  39.2091840   7.1291187  82.1396823
  39.4488439   7.7609712  82.8175841  38.3661037   6.7779228  82.4262182
  43.7219702   2.9370310  84.5438327  43.6489874   3.7425281  85.0557631
  43.2797095   3.1362276  83.7186348  43.5109482   2.1742080  78.0541148
  42.7277004   2.7163760  78.1479373  44.2102227   2.6916060  78.4535389
  46.1818386   2.8357144  86.6996485  46.8946358   3.4704609  86.6272387
  45.6908414   2.9321010  85.8836487  47.9035913  -3.2591603  78.2713777
  46.9692191  -3.1390141  78.1018481  48.0812581  -4.1619137  78.0073787
  49.3584695  -1.0730463  75.8049963  49.6344539  -1.1873868  76.7143837
  48.4889194  -1.4712978  75.7662136  45.9938759   3.1755888  79.4482777
  46.1761154   2.3577544  79.9110529  46.8171745   3.3923580  79.0107667
  46.3280925   2.1024073  76.7097825  46.8568691   1.5916528  76.0967987
  46.5909144   1.7866603  77.5743358  39.6836673   3.1539190  79.4695601
  39.0147048   3.6385317  78.9859641  39.5449542   3.4008410  80.3838980
  43.8241941   5.1882933  86.0678260  44.3760249   5.3514555  86.8327345
  44.1648135   5.7787371  85.3958284  46.9610328   3.1364909  83.0541942
  46.8361468   2.3354649  82.5452887  47.6189420   3.6311102  82.5655912
  49.0245237   0.9373929  84.6821492  48.0775572   0.8179280  84.6099819
  49.3728010   0.0496427  84.7647753  46.0291670   0.7326645  80.8825844
  45.8816633  -0.1956647  81.0633414  46.8545164   0.7546736  80.3982919
  49.6325792   1.5555204  81.9690717  50.5572339   1.3498065  81.8315168
  49.4641095   1.3071605  82.8780058  49.4221108   2.0740871  77.3252808
  49.5957986   1.5087294  76.5726661  49.9149999   2.8741766  77.1432298
  50.4096281   1.3907636  74.4249707  51.1047185   2.0114328  74.6437021
  50.7519431   0.5402987  74.7002084  52.3087704  -1.1592659  75.9537037
  52.8339028  -0.8205386  75.2286357  52.2210056  -2.0945643  75.7700172
  43.9928365   4.9079325  80.3132291  43.5533355   4.4155703  81.0065147
  44.7436482   4.3652292  80.0724366  36.4720704   1.0990865  80.3156919
  37.2978723   0.7994637  79.9355562  36.1214756   0.3298488  80.7646707
  41.4402237   0.4517334  82.3854592  40.8182246  -0.2111961  82.0856820
  42.1107104   0.4778466  81.7028240  41.0015744  -0.9978743  75.8613053
  41.1503864  -0.3143279  75.2079725  41.8082187  -1.0173653  76.3762508
  38.7568377  -4.9713565  76.8674122  38.5114419  -5.8751235  77.0654332
  38.9264291  -4.9696415  75.9253600  44.5011149   1.4969387  73.3324800
  43.9285116   2.1159575  72.8795272  45.0743943   2.0468749  73.8664722
  47.7208409   1.7806538  74.4633382  48.6539082   1.7152099  74.6666258
  47.6331622   2.6162804  74.0047915  50.3496426   1.0972408  71.4237330
  50.2710057   0.7632272  72.3173088  51.1706092   1.5894176  71.4228802
  36.7841414   3.2303480  82.0370733  36.6495882   2.4703881  81.4708731
  36.3673477   3.9544380  81.5699522  47.9200377  -1.5859597  71.0447308
  48.6236228  -1.3809594  71.6604964  47.1963026  -1.0182835  71.3096392
  39.9410540   4.1272797  82.2489176  39.8242924   5.0718229  82.1467866
  39.1202987   3.8246358  82.6374975  49.8287075  -1.1477067  73.0945768
  50.6632679  -1.5795869  72.9123243  49.6671418  -1.3195054  74.0222663
  49.4832967  -4.6444954  74.4602108  49.4281771  -4.8100683  73.5190552
  48.8579022  -3.9368921  74.6164297  40.9665054   4.7801059  85.4645104
  41.8692301   4.8124669  85.7811599  40.7402424   3.8501510  85.4791440
  42.7218656   3.5332045  82.1255183  41.7714287   3.5333907  82.0119555
  43.0251143   2.7864780  81.6091217  58.4571350   9.3692584  83.1900945
  59.0949760   9.2499331  82.4864285  58.3392193  10.3173428  83.2488897
  55.2661056   9.3220012  83.1262470  54.9279568   9.2061076  82.2383005
  56.1350824   8.9211177  83.1063476  51.1247872  11.1755488  79.1159361
  50.5612737  11.0845425  78.3475649  51.0100267  10.3555393  79.5961853
  55.7480839  10.4754863  89.0848675  55.7369480  10.0807662  88.2129179
  55.9101479   9.7420936  89.6782447  48.6712304  12.6706680  81.9543581
  49.4633596  12.3297504  81.5389881  48.9108954  12.7801655  82.8745735
  56.7047431  14.8426456  74.4273826  56.0535410  15.4280536  74.0407839
  57.4991793  15.3732651  74.4868863  50.6303058  11.9315593  74.8260960
  51.4033934  11.3844580  74.6873836  50.9828457  12.7959842  75.0375421
  52.4688100  13.2591975  88.0327859  52.1777966  14.1637606  87.9174526
  53.1045085  13.3008503  88.7471929  53.3944307  10.6368824  84.6229219
  53.9907879  10.4124846  83.9086182  53.4519279   9.8953569  85.2254667
  52.9669336   8.0908259  72.4579410  53.2194856   7.5689780  71.6962873
  52.0293895   7.9274405  72.5606094  58.0112618   7.0944038  80.2654153
  58.7975708   6.6763461  79.9144570  58.2751323   7.9990130  80.4335802
  58.1822696  12.5316888  74.9642810  57.5468529  12.6051514  75.6763715
  57.8520102  13.1210487  74.2861889  63.4121046   7.0319271  81.1687132
  64.1446217   6.4618488  81.4024961  62.6560401   6.6440871  81.6093637
  52.6865624   9.9936365  74.6603785  52.5701882   9.3181268  75.3284869
  52.7967884   9.5068739  73.8435938  55.0297165   9.4546512  78.3650474
  54.6655372   8.9277133  79.0763396  55.8864281   9.0644981  78.1916960
  60.9346466   0.7440845  85.6281740  60.6029791   1.6136256  85.4042955
  60.3392079   0.4277129  86.3075771  54.6702652   4.4836412  73.3611823
  54.8377055   5.3516648  73.7282294  54.4799821   4.6463694  72.4373112
  57.4277985  12.9453391  85.0277653  57.1278708  13.8478430  84.9193460
  57.0829045  12.6785574  85.8798806  50.8790467   9.3967188  81.0614357
  49.9540963   9.2643402  81.2692049  51.1274880  10.1761407  81.5584300
  60.8275129   5.4635931  82.7075090  59.9192007   5.3951339  82.4133851
  60.7762725   5.9407876  83.5356916  54.6491873   6.9394069  74.3458489
  54.5291498   7.3851120  75.1843970  53.9544461   7.2879387  73.7872028
  48.2399278   9.0400461  81.8958147  48.3691659   9.2934940  82.8097558
  47.5596729   9.6328169  81.5762802  52.4098765  19.7097711  77.9948621
  52.3322795  20.6605536  78.0737101  51.8060409  19.3643584  78.6523547
  54.9015995   6.8825577  90.6509988  54.1249329   7.4419497  90.6412852
  55.5406558   7.3682360  91.1724858  62.6936776   3.6652369  84.4852964
  62.0511156   3.9584903  83.8392759  62.1891704   3.5505290  85.2906161
  60.3476939   7.4115543  75.1738824  61.2594795   7.6442929  74.9986521
  59.8386586   7.9952587  74.6113902  53.1562367   9.6911030  90.2127955
  53.8977052  10.2296074  89.9362778  52.4499353  10.3177319  90.3699506
  58.6317707  11.8340170  88.8100116  59.0401063  11.3922581  88.0654748
  57.9094968  11.2592798  89.0634309  54.9848777   6.7712777  86.1833673
  55.8309972   7.1952191  86.3268322  54.9247415   6.1146401  86.8772236
  58.9546522  12.3941361  82.5652405  58.3255384  12.5587075  81.8628473
  58.5672184  12.8082971  83.3363369  62.8335753  13.3295799  79.9196769
  62.1486792  13.7094700  79.3693802  62.9179603  13.9391126  80.6528716
  58.1348222   4.4317146  87.8414847  57.8909154   5.1859206  87.3049122
  58.4108153   4.8102493  88.6762094  60.0886685  10.9755758  86.5192112
  60.3003580  11.6187518  85.8426493  60.0416433  10.1418074  86.0514042
  57.6912914   3.5873579  83.4228684  56.8297393   3.8854832  83.7145422
  57.7175349   3.8043977  82.4909717  54.5074483  12.1315769  79.8302490
  54.9712829  12.4103472  79.0407113  54.2431282  11.2299214  79.6475581
  51.3998565  11.6787251  82.7682253  51.9699922  12.1074519  82.1299738
  51.9906676  11.3969835  83.4666439  53.4443370   8.2538922  76.6392055
  54.1467413   8.7059965  77.1065982  53.1123998   7.6122740  77.2671948
  51.8923731   6.8450678  91.0143265  51.2622392   7.5266959  91.2478661
  51.7859819   6.7333760  90.0696403  47.1868703   6.5122474  81.9409189
  46.3967757   6.7680003  81.4649299  47.6779951   7.3270812  82.0461229
  61.2032513  13.8527713  84.6914470  62.0249957  13.4507901  84.4097151
  61.1994916  13.7495948  85.6430585  49.1383449   6.8767053  78.8992665
  48.3414612   6.9885748  79.4176161  48.9109041   7.2153706  78.0333556
  54.9689116  13.4011757  86.8475180  55.0333549  13.8632164  87.6833352
  54.2600040  12.7709122  86.9757490  45.4706406   6.7652965  84.3724180
  45.7214445   7.6499975  84.6381756  46.0065955   6.5857566  83.5999271
  69.2938506  10.1966462  81.0399441  68.5402214   9.6273860  80.8843446
  69.4286047  10.1629126  81.9870076  54.6837134  15.0679864  76.7154160
  54.5482809  15.9131400  77.1439008  55.2246947  15.2699142  75.9520094
  48.1366532  12.5855302  77.2882086  48.6491052  13.3798552  77.4387650
  48.7889244  11.8881593  77.2215687  49.9461416  15.7021058  79.3704839
  50.1228045  16.6239023  79.1825823  50.7418250  15.3879478  79.7999218
  54.0872435   2.5629323  90.9688772  54.8282148   3.1636476  90.8893235
  54.3190358   1.8206961  90.4106815  49.2313773   7.7485690  89.2467002
  49.1167288   6.8470948  89.5474101  48.3758291   7.9949387  88.8951818
  56.3105611  15.6903431  90.8454503  55.8669465  14.9039809  90.5275407
  56.9722824  15.8782581  90.1798393  51.0692732  17.2199232  85.3715181
  51.6200157  17.0916296  84.5992175  50.2304208  17.5194121  85.0210074
  58.4086849  15.9706231  88.8735904  58.3905324  16.7915112  88.3816173
  59.3306769  15.8460306  89.0986045  54.8659903  13.4850360  89.7159412
  55.3988240  12.7238648  89.4858720  54.3373984  13.1924012  90.4583567
  58.0329598  -1.4089574  85.2453054  57.6893867  -0.5187932  85.1692164
  58.4008560  -1.5987916  84.3822639  46.1015448  10.9143956  78.0641656
  46.9390670  11.3240965  77.8475364  46.2793716   9.9743399  78.0341850
  57.9979880   8.5819037  73.7525489  57.4826504   9.3523642  73.9913876
  57.7257189   7.9084173  74.3758550  55.5826991   3.4268738  78.8110727
  54.7268588   3.0375588  78.6316366  55.9953943   3.5060699  77.9510513
  57.1126138   0.9615081  83.2102287  56.6090934   0.9245216  82.3970092
  57.4056745   1.8707824  83.2698944  53.3569024   1.0453811  82.2168469
  54.2222021   0.8496620  81.8574358  53.4246533   0.8164163  83.1437826
  62.9714155  11.3351392  75.6878662  62.1943597  10.9962551  75.2433825
  63.6505636  11.3404015  75.0133628  57.7866184   6.4546129  75.5785270
  57.4816319   6.7692278  76.4295413  58.7396626   6.5327549  75.6212603
  56.2312615  12.6136353  77.2278224  55.7033977  11.8789112  76.9151462
  55.7300118  13.3911029  76.9818193  61.2105461  10.8085373  82.3445270
  60.5529136  11.4984634  82.4325399  62.0145861  11.1981805  82.6879257
  50.9631343   3.2756019  79.5884836  51.5375095   3.0531200  78.8558029
  51.5502325   3.3444713  80.3413437  60.0210920   9.1629746  80.3949212
  60.5342802   9.7959738  80.8970922  60.6712144   8.5630941  80.0292572
  51.2900930   5.3060480  73.6080721  50.4538242   5.6435166  73.9289996
  51.1505700   5.1709460  72.6707858  53.2654011   0.1497268  78.3159905
  52.6118423  -0.1653715  77.6916520  53.2234485  -0.4726992  79.0419728
  54.3765216  10.4316563  70.2313197  53.4692277  10.2005816  70.4304346
  54.8736248   9.6354182  70.4187179  57.2833294  19.1414070  73.1509883
  56.6094993  19.4445767  73.7594841  57.6699116  19.9443150  72.8015340
  56.4991751   6.6379201  82.6407553  55.5814312   6.8594148  82.4829241
  56.9151895   6.7125512  81.7819260  57.2826799   8.0370617  77.7710233
  58.0298618   8.5492014  77.4617355  57.5518388   7.7154670  78.6314627
  55.5553449  10.5329158  74.7537187  54.6464668  10.2488190  74.8509657
  55.5848533  10.9528236  73.8940494  60.7872716  14.1435747  78.5228355
  60.3335044  13.3026657  78.5793545  60.1566683  14.7797146  78.8603135
  59.7305636   5.0727733  79.7529022  58.9928393   4.5605119  80.0839265
  59.9832410   4.6328115  78.9412299  59.2305656  15.9812244  79.4578173
  59.5228630  16.5417301  78.7390539  59.7404276  16.2740805  80.2131332
  46.1241619   8.2534672  78.7352390  45.9266019   7.6604032  78.0103456
  45.5688283   7.9486882  79.4528328  54.1038343   8.1457778  80.8546983
  54.1586953   7.1931615  80.7789459  53.2929545   8.3017217  81.3388281
  55.2529537  12.0737901  72.0925266  54.8148967  11.3573760  71.6330903
  55.9939978  12.3014016  71.5310357  52.0430703   6.7634838  78.6137362
  51.2298569   7.0629009  79.0202554  52.5389697   6.3690527  79.3311844
  54.1939281  16.7592595  80.5471626  54.1515460  16.9853441  79.6180158
  55.1101980  16.5255970  80.6957427  57.6404915   7.2276662  87.4452255
  57.9954302   7.4548136  88.3046721  58.2877046   7.5595039  86.8229511
  63.3702652  10.3495098  78.1501584  63.2320550  10.5396694  77.2222774
  63.0138870  11.1114481  78.6069636  51.5344778   4.3353194  84.2298596
  52.1744157   4.1941953  83.5321560  50.7022308   4.0487707  83.8537198
  63.3972031  12.4171625  83.1612856  63.8308538  12.3246914  84.0095910
  64.1103612  12.3929126  82.5232872  52.3105082  13.6355624  80.3433589
  53.1045680  13.1405944  80.1416164  51.5996774  13.1073487  79.9801294
  57.1299926  16.0173719  84.6945957  57.1836948  16.5864656  85.4623672
  56.2614708  16.1875605  84.3299994  48.6187845   7.7798706  76.4193342
  47.6885433   7.7183161  76.6363304  48.7145317   7.2574658  75.6229983
  48.5373394   4.3053519  79.0071583  48.7980211   5.2198852  78.8980744
  49.3590567   3.8377961  79.1568196  50.0098320   5.7191276  86.1770408
  50.6821373   5.5108638  85.5283057  49.1828106   5.5213362  85.7375640
  64.2587581  12.4595326  85.6945741  64.4523471  13.3641137  85.9405016
  64.1588199  12.0002745  86.5284326  55.9123892   2.3453217  88.1936069
  55.2651807   3.0443166  88.1000545  56.6824907   2.7789361  88.5612317
  59.3202689  12.6102069  91.2686622  59.1688196  12.3812620  90.3516706
  59.3107369  13.5672670  91.2817967  56.0888026  10.1833982  86.2532888
  57.0180086  10.3345141  86.0801856  55.6679056  10.2718002  85.3981535
  54.8876358  14.2084646  84.0231426  54.7487443  13.8403430  84.8957364
  54.0990954  14.7232285  83.8515384  55.4824510  19.3093742  75.3656963
  55.6576265  18.8381786  76.1802585  54.7957298  19.9359509  75.5938223
  56.4381573  13.5866249  81.4120264  56.1031405  13.5467019  82.3077914
  55.9385518  12.9210965  80.9390674  50.4125817   8.9933879  86.9372845
  50.2745615   8.2614117  87.5384384  51.3230740   8.9042779  86.6557033
  59.3740764  10.9322283  71.6857323  58.7569935  10.2069111  71.5890376
  58.9057253  11.6931643  71.3424398  53.0408117   8.7053838  86.4256525
  53.7507736   8.0647030  86.3843143  52.9977426   8.9566733  87.3482705
  61.0294896  15.6421191  89.3463104  60.9707442  14.9580411  88.6793687
  61.4314415  16.3840181  88.8943730  51.7537051   5.6919056  88.2452164
  51.2174408   5.2409794  88.8973760  51.1653760   5.8264965  87.5022628
  50.0485595  22.4583105  82.1396823  50.2882193  23.0901629  82.8175841
  49.2054791  22.1071145  82.4262182  51.1639310   5.1507707  70.8078628
  50.2868777   5.0296508  70.4440874  51.6397063   4.3593786  70.5557516
  61.0312303  13.6060775  87.5777083  60.1439082  13.2686697  87.7003482
  61.6010854  12.8743806  87.8145849  42.6841451   9.9384867  80.9020135
  43.3712490   9.6246597  80.3141150  42.5289579  10.8426232  80.6287386
  47.4876173   4.8275064  85.3305159  47.4034361   4.2200733  84.5955569
  46.6658879   5.3184082  85.3314655  54.5613457  18.2662228  84.5438327
  54.4883628  19.0717199  85.0557631  54.1190850  18.4654193  83.7186348
  54.3503236  17.5033998  78.0541148  53.5670758  18.0455678  78.1479373
  55.0495982  18.0207977  78.4535389  57.6599887   3.3128627  80.6975354
  58.1568586   2.5598589  80.3776424  56.8886868   3.3492944  80.1318563
  65.5129644   9.0168993  82.3393645  65.5019520   9.8993708  81.9687578
  64.6447023   8.6640543  82.1448182  57.0212140  18.1649062  86.6996485
  57.7340113  18.7996526  86.6272387  56.5302169  18.2612928  85.8836487
  58.7429667  12.0700314  78.2713777  57.8085946  12.1901777  78.1018481
  58.9206336  11.1672781  78.0073787  54.2434855   5.4546010  80.4247038
  53.8732643   4.9017050  81.1127944  54.7393948   4.8504144  79.8722038
  62.1302219   7.9117634  78.8063811  62.5962671   8.7445625  78.7324114
  62.5809719   7.4462615  79.5109070  52.0724054  15.9143505  87.5202056
  52.7733513  16.5479988  87.6731450  51.6019169  16.2558237  86.7597695
  60.1978450  14.2561455  75.8049963  60.4738294  14.1418049  76.7143837
  59.3282948  13.8578940  75.7662136  60.1018881   0.2798221  82.8454712
  59.1881961   0.5102447  83.0136919  60.5311983   0.3636665  83.6968745
  59.8725340   8.4688113  85.3454607  59.2196790   8.7164020  84.6907059
  60.2505720   7.6552251  85.0117084  56.8332514  18.5047806  79.4482777
  57.0154908  17.6869462  79.9110529  57.6565500  18.7215498  79.0107667
  57.1674679  17.4315991  76.7097825  57.6962446  16.9208445  76.0967987
  57.4302899  17.1158521  77.5743358  55.9212913   9.2107924  91.8320644
  55.2453550   9.1102053  92.5023019  56.7440547   9.0547137  92.2956641
  47.6691772  15.4479860  84.4533159  48.2545209  14.7023548  84.5861063
  47.4716610  15.7583817  85.3369823  50.5230427  18.4831108  79.4695601
  49.8540802  18.9677235  78.9859641  50.3843297  18.7300328  80.3838980
  42.2609427   8.0185460  83.1737602  42.2993526   7.4849051  83.9674720
  41.7549719   7.4920666  82.5548579  54.6635696  20.5174851  86.0678260
  55.2154004  20.6806473  86.8327345  55.0041889  21.1079289  85.3958284
  49.6400189   2.8650001  86.6700144  49.7041515   3.7264832  86.2577542
  49.5767309   2.2524003  85.9372503  59.5146570  15.3436109  91.9226914
  60.0586474  15.9566067  91.4281869  58.9333415  15.9015687  92.4393927
  45.8918004   6.7449563  76.2491533  46.1871445   5.8360241  76.1958587
  44.9906040   6.7237302  75.9272536  57.8004083  18.4656827  83.0541942
  57.6755222  17.6646566  82.5452887  58.4583174  18.9603020  82.5655912
  49.4212251   4.8205559  82.2319082  48.6998837   5.4341527  82.0926555
  50.2105507   5.3563324  82.1535728  59.8638991  16.2665847  84.6821492
  58.9169327  16.1471198  84.6099819  60.2121764  15.3788345  84.7647753
  52.2238565   2.1559986  88.5059734  52.7472967   2.4022282  89.2686043
  52.0050898   2.9880020  88.0862871  47.6205846   4.4263660  76.3730859
  47.2918552   3.5461039  76.1905964  47.9745216   4.3711329  77.2607248
  56.8685425  16.0618563  80.8825844  56.7210387  15.1335270  81.0633414
  57.6938918  16.0838654  80.3982919  50.7347669   4.7136630  76.7406336
  51.0743741   5.2422551  76.0184945  51.1819789   5.0517036  77.5164903
  60.4719547  16.8847122  81.9690717  61.3966094  16.6789983  81.8315168
  60.3034850  16.6363523  82.8780058  53.4291110   3.0973681  86.1909404
  53.0887930   2.2981494  86.5930084  52.7230116   3.3975392  85.6186237
  54.0807582   0.1822993  84.6436727  54.9033651  -0.2916529  84.5215618
  54.3245645   0.9613477  85.1435414  52.7215816   3.2111252  74.9399629
  53.4424179   3.5892504  74.4363346  52.0981120   3.9300128  75.0434607
  56.8646939   3.9156401  75.8757961  57.0810553   4.7981038  75.5746789
  56.3841006   3.5242614  75.1463603  51.6046160   6.8742114  82.4528706
  51.4590741   7.1882417  83.3452987  51.1271364   7.4927014  81.8999605
  53.4642543   3.8644662  82.5009595  53.4504112   2.9685755  82.1641893
  54.1814971   3.8715325  83.1347882  55.3168674   4.2982002  84.5462723
  55.0586452   5.2199073  84.5447053  54.7853714   3.9012436  85.2363187
  60.2614863  17.4032789  77.3252808  60.4351740  16.8379212  76.5726661
  60.7543754  18.2033684  77.1432298  46.0791823   9.4147458  85.3916367
  45.5345291  10.1907266  85.5236641  46.9571172   9.7618263  85.2335489
  52.8679439   2.7459042  77.7697166  52.9895350   1.8175688  77.9688053
  52.5781482   2.7597728  76.8575481  55.7370630   0.4313952  80.9063885
  55.7592326   0.4953286  79.9515865  56.1538689  -0.4081539  81.1004392
  66.1154254  10.1669212  78.9443108  66.5585400   9.4176537  78.5462231
  65.2380764  10.1579348  78.5616840  61.2490035  16.7199553  74.4249707
  61.9440940  17.3406246  74.6437021  61.5913185  15.8694905  74.7002084
  46.8657844   8.5417354  88.2846524  46.1239580   8.6899990  88.8711154
  46.5450589   8.8025620  87.4213273  63.1481458  14.1699259  75.9537037
  63.6732782  14.5086532  75.2286357  63.0603811  13.2346274  75.7700172
  54.8101507  18.0833333  88.0826914  55.1188633  17.8382479  88.9549614
  55.6076989  18.2879971  87.5945784  54.8322119  20.2371242  80.3132291
  54.3927109  19.7447621  81.0065147  55.5830236  19.6944210  80.0724366
  47.3114458  16.4282783  80.3156919  48.1372478  16.1286555  79.9355562
  46.9608510  15.6590406  80.7646707  52.2795991  15.7809251  82.3854592
  51.6576001  15.1179956  82.0856820  52.9500858  15.8070383  81.7028240
  45.5123063  14.3469110  81.2745852  44.6754971  13.9191284  81.0929853
  45.4846709  14.5401553  82.2116643  62.8375364  14.8032163  91.2588235
  62.0470908  14.7856301  90.7192735  62.6008719  15.3420456  92.0137272
  62.9573239  11.6524629  88.5720964  63.0071244  11.4874636  89.5136487
  62.8487163  10.7851888  88.1818845  51.8409498  14.3313175  75.8613053
  51.9897619  15.0148639  75.2079725  52.6475942  14.3118265  76.3762508
  60.2477002   7.6355557  89.8880271  61.1486865   7.4962022  89.5964268
  60.3224976   7.8010012  90.8278448  54.5819807   5.0122412  88.7333457
  53.7123117   5.3055978  88.4616045  54.8179288   5.5962857  89.4540720
  64.4591436  14.0721571  88.8162985  64.1676245  14.4351551  89.6526446
  63.8463568  13.3588579  88.6376317  65.6587119  11.6374450  81.3365556
  66.4934010  12.0764254  81.5003116  65.7946247  11.1613104  80.5173801
  62.7078625   9.1954185  87.2843043  63.1832746   9.3881831  86.4761895
  61.7844190   9.2513371  87.0386427  49.5962131  10.3578352  76.8674122
  49.3508173   9.4540682  77.0654332  49.7658046  10.3595503  75.9253600
  57.2858841   1.2302029  86.2498877  57.8040785   1.9663056  85.9245366
  56.9313974   1.5366022  87.0845636  48.8657779   6.0906710  74.3660283
  48.1727024   6.1651065  73.7100319  48.6209531   5.3267054  74.8881800
  55.3404904  16.8261305  73.3324800  54.7678871  17.4451492  72.8795272
  55.9137697  17.3760667  73.8664722  61.4080294   6.0719945  85.5171349
  62.3597716   6.1718043  85.5383573  61.2383744   5.2798214  86.0269433
  59.4294673   3.1575528  85.7030750  58.8344605   3.4380541  85.0077239
  59.1444370   3.6469429  86.4747491  58.5602163  17.1098455  74.4633382
  59.4932837  17.0444017  74.6666258  58.4725376  17.9454722  74.0047915
  61.1890180  16.4264326  71.4237330  61.1103812  16.0924189  72.3173088
  62.0099847  16.9186094  71.4228802  63.8868371   9.2926065  84.6313649
  63.8544691   8.3542066  84.8173332  64.4968995   9.3710102  83.8979473
  55.7251702   8.1622118  70.6740853  56.6710807   8.0328326  70.7429271
  55.3465947   7.4236780  71.1510281  64.0362860   6.0837108  84.6771932
  63.5201908   5.2995565  84.4901861  64.9202808   5.7555825  84.8418451
  61.6973587  -0.1721876  80.6367744  61.4998408  -0.4806788  81.5211076
  62.3073292   0.5539763  80.7665674  69.7044921  10.3542072  83.7719685
  70.4348310  10.0927360  84.3327389  69.0951867   9.6170794  83.8121753
  67.7860218   8.4949934  84.3694137  67.0593382   8.3605899  83.7610628
  67.3707505   8.8026763  85.1750855  55.6090395  12.2139864  92.1341510
  56.5293404  12.3918463  92.3281556  55.5739978  11.2695909  91.9821209
  53.9094619   6.0872094  70.6095738  53.0026075   5.7905207  70.6858451
  54.1870600   5.7901912  69.7430024  44.8272560   7.4078458  81.0594784
  44.5075344   6.5543766  80.7669158  44.2805988   7.6227036  81.8152752
  48.6052467  10.1240899  84.7764291  48.8238477  11.0558007  84.7952325
  49.0178241   9.7648873  85.5619095  55.5256685   0.6308984  76.7639979
  54.7157413   0.2856069  77.1395225  56.2141102   0.3216528  77.3527591
  57.4547233  -0.2912969  78.3864276  58.0078272   0.1282484  79.0454299
  57.6917320  -1.2177221  78.4287232  52.6793404   2.9459030  70.7507717
  53.5412568   3.2713928  71.0103534  52.8643748   2.1590525  70.2380783
  44.6960820  11.0281369  83.0287906  44.0024291  10.6135322  82.5157860
  45.4433811  11.0701906  82.4321325  60.8326040   1.8187556  77.8942940
  60.2524709   2.4772360  77.5120992  60.5661973   0.9964901  77.4830358
  59.2829607   1.2192614  80.0964260  59.7829385   1.3309148  79.2878579
  59.9265215   0.9153667  80.7365069  53.3411603   9.1271243  92.9832101
  52.8578684   9.9271603  93.1895990  53.4272542   9.1379188  92.0299545
  46.6097562  10.9599623  80.9053921  46.5868250  11.0587310  79.9535804
  46.9198199  11.8064774  81.2271087  49.2684940  13.0175778  85.0200535
  50.2228194  12.9859720  84.9530467  49.0697464  12.5566402  85.8350761
  49.8584322  11.5876894  87.5871333  50.6777211  12.0820973  87.6106170
  50.1321130  10.6708862  87.5588900  59.6150918   3.9787646  76.9499288
  58.7276773   4.2637297  76.7319483  60.0304908   3.8181410  76.1026565
  62.9665455   4.0034167  80.6653628  63.7425845   4.4930620  80.9378244
  62.2413589   4.4292222  81.1225497  65.4038013   4.7161787  81.7227568
  65.9982504   4.4757523  81.0120876  65.4764597   3.9968917  82.3501104
  47.6235169  18.5595398  82.0370733  47.4889637  17.7995798  81.4708731
  47.2067231  19.2836297  81.5699522  58.7594132  13.7432321  71.0447308
  59.4629982  13.9482324  71.6604964  58.0356781  14.3109083  71.3096392
  59.5891942   9.4942182  77.1649578  59.5327144   9.9510734  76.3257211
  60.1420285   8.7332867  76.9872421  63.3996748   5.2831914  77.9899698
  63.1433682   4.8828550  78.8207906  62.7749616   5.9975708  77.8649837
  67.7109086   8.0227987  80.4970989  67.1508644   8.0921177  81.2702551
  67.1052589   7.8468972  79.7770486  50.7804295  19.4564715  82.2489176
  50.6636679  20.4010147  82.1467866  49.9596741  19.1538276  82.6374975
  60.6680829  14.1814850  73.0945768  61.5026433  13.7496049  72.9123243
  60.5065172  14.0096864  74.0222663  60.3226721  10.6846964  74.4602108
  60.2675525  10.5191235  73.5190552  59.6972777  11.3922996  74.6164297
  45.1119236   5.9215028  88.2863530  45.7578100   5.4113982  88.7750755
  44.9036388   6.6583710  88.8606955  57.6372629  12.9895875  93.7855670
  58.5063788  13.1636528  93.4242305  57.1579380  13.8090292  93.6631400
  53.6322847   0.1855073  74.0387426  53.6201517   1.1296912  74.1955697
  54.5246269   0.0025218  73.7446887  51.8058809  20.1092976  85.4645104
  52.7086056  20.1416587  85.7811599  51.5796179  19.1793427  85.4791440
  53.5612411  18.8623963  82.1255183  52.6108042  18.8625825  82.0119555
  53.8644897  18.1156698  81.6091217  69.2965104  24.6984501  83.1900945
  69.9343514  24.5791249  82.4864285  69.1785947  25.6465345  83.2488897
  66.1054811  24.6511929  83.1262470  65.7673322  24.5352994  82.2383005
  66.9744579  24.2503095  83.1063476  61.9641626  26.5047406  79.1159361
  61.4006492  26.4137343  78.3475649  61.8494021  25.6847310  79.5961853
  66.5874594  25.8046781  89.0848675  66.5763234  25.4099579  88.2129179
  66.7495233  25.0712854  89.6782447  59.5106058  27.9998597  81.9543581
  60.3027350  27.6589422  81.5389881  59.7502708  28.1093573  82.8745735
  67.5441185  30.1718374  74.4273826  66.8929165  30.7572454  74.0407839
  68.3385548  30.7024568  74.4868863  61.4696812  27.2607511  74.8260960
  62.2427688  26.7136498  74.6873836  61.8222211  28.1251760  75.0375421
  63.3081855  28.5883893  88.0327859  63.0171721  29.4929524  87.9174526
  63.9438839  28.6300421  88.7471929  64.2338062  25.9660742  84.6229219
  64.8301634  25.7416764  83.9086182  64.2913033  25.2245487  85.2254667
  63.8063090  23.4200177  72.4579410  64.0588611  22.8981698  71.6962873
  62.8687649  23.2566322  72.5606094  68.8506373  22.4235955  80.2654153
  69.6369462  22.0055378  79.9144570  69.1145077  23.3282047  80.4335802
  69.0216450  27.8608806  74.9642810  68.3862283  27.9343432  75.6763715
  68.6913857  28.4502404  74.2861889  74.2514800  22.3611188  81.1687132
  74.9839972  21.7910405  81.4024961  73.4954156  21.9732789  81.6093637
  63.5259379  25.3228283  74.6603785  63.4095637  24.6473186  75.3284869
  63.6361639  24.8360657  73.8435938  65.8690920  24.7838430  78.3650474
  65.5049127  24.2569051  79.0763396  66.7258036  24.3936899  78.1916960
  71.7740220  16.0732763  85.6281740  71.4423545  16.9428173  85.4042955
  71.1785834  15.7569047  86.3075771  65.5096407  19.8128330  73.3611823
  65.6770809  20.6808566  73.7282294  65.3193576  19.9755611  72.4373112
  68.2671740  28.2745308  85.0277653  67.9672463  29.1770347  84.9193460
  67.9222799  28.0077492  85.8798806  61.7184221  24.7259105  81.0614357
  60.7934718  24.5935319  81.2692049  61.9668635  25.5053325  81.5584300
  71.6668884  20.7927849  82.7075090  70.7585761  20.7243257  82.4133851
  71.6156479  21.2699794  83.5356916  65.4885628  22.2685987  74.3458489
  65.3685253  22.7143038  75.1843970  64.7938216  22.6171305  73.7872028
  59.0793032  24.3692379  81.8958147  59.2085414  24.6226858  82.8097558
  58.3990484  24.9620087  81.5762802  63.2492520  35.0389629  77.9948621
  63.1716549  35.9897454  78.0737101  62.6454163  34.6935501  78.6523547
  65.7409749  22.2117494  90.6509988  64.9643084  22.7711414  90.6412852
  66.3800313  22.6974277  91.1724858  73.5330530  18.9944287  84.4852964
  72.8904910  19.2876820  83.8392759  73.0285459  18.8797207  85.2906161
  71.1870694  22.7407460  75.1738824  72.0988550  22.9734847  74.9986521
  70.6780341  23.3244504  74.6113902  63.9956122  25.0202948  90.2127955
  64.7370806  25.5587992  89.9362778  63.2893107  25.6469236  90.3699506
  69.4711461  27.1632088  88.8100116  69.8794817  26.7214499  88.0654748
  68.7488723  26.5884716  89.0634309  65.8242531  22.1004695  86.1833673
  66.6703727  22.5244108  86.3268322  65.7641169  21.4438319  86.8772236
  69.7940276  27.7233279  82.5652405  69.1649139  27.8878993  81.8628473
  69.4065938  28.1374888  83.3363369  73.6729508  28.6587717  79.9196769
  72.9880546  29.0386618  79.3693802  73.7573357  29.2683043  80.6528716
  68.9741977  19.7609063  87.8414847  68.7302909  20.5151124  87.3049122
  69.2501907  20.1394411  88.6762094  70.9280440  26.3047676  86.5192112
  71.1397335  26.9479435  85.8426493  70.8810188  25.4709992  86.0514042
  68.5306669  18.9165496  83.4228684  67.6691148  19.2146750  83.7145422
  68.5569103  19.1335895  82.4909717  65.3468238  27.4607687  79.8302490
  65.8106583  27.7395390  79.0407113  65.0825036  26.5591131  79.6475581
  62.2392319  27.0079168  82.7682253  62.8093676  27.4366437  82.1299738
  62.8300431  26.7261753  83.4666439  64.2837124  23.5830839  76.6392055
  64.9861167  24.0351883  77.1065982  63.9517752  22.9414658  77.2671948
  62.7317486  22.1742596  91.0143265  62.1016146  22.8558877  91.2478661
  62.6253573  22.0625677  90.0696403  58.0262458  21.8414392  81.9409189
  57.2361512  22.0971920  81.4649299  58.5173705  22.6562730  82.0461229
  72.0426268  29.1819631  84.6914470  72.8643711  28.7799818  84.4097151
  72.0388670  29.0787865  85.6430585  59.9777203  22.2058971  78.8992665
  59.1808367  22.3177665  79.4176161  59.7502796  22.5445623  78.0333556
  65.8082871  28.7303674  86.8475180  65.8727303  29.1924082  87.6833352
  65.0993795  28.1001039  86.9757490  56.3100161  22.0944882  84.3724180
  56.5608199  22.9791892  84.6381756  56.8459709  21.9149484  83.5999271
  80.1332261  25.5258379  81.0399441  79.3795969  24.9565778  80.8843446
  80.2679802  25.4921044  81.9870076  65.5230889  30.3971782  76.7154160
  65.3876563  31.2423318  77.1439008  66.0640701  30.5991059  75.9520094
  62.0098228  16.4763362  93.3768516  61.6165174  15.9229560  94.0516160
  62.8264369  16.7873940  93.7675033  58.9760286  27.9147220  77.2882086
  59.4884807  28.7090470  77.4387650  59.6282999  27.2173510  77.2215687
  60.7855171  31.0312976  79.3704839  60.9621799  31.9530941  79.1825823
  61.5812004  30.7171395  79.7999218  64.9266189  17.8921241  90.9688772
  65.6675903  18.4928394  90.8893235  65.1584112  17.1498879  90.4106815
  60.0707527  23.0777608  89.2467002  59.9561042  22.1762865  89.5474101
  59.2152045  23.3241305  88.8951818  67.1499365  31.0195348  90.8454503
  66.7063219  30.2331727  90.5275407  67.8116579  31.2074499  90.1798393
  61.9086486  32.5491150  85.3715181  62.4593911  32.4208213  84.5992175
  61.0697962  32.8486039  85.0210074  69.2480603  31.2998148  88.8735904
  69.2299078  32.1207029  88.3816173  70.1700523  31.1752223  89.0986045
  65.7053657  28.8142278  89.7159412  66.2381994  28.0530566  89.4858720
  65.1767738  28.5215930  90.4583567  68.8723352  13.9202344  85.2453054
  68.5287622  14.8103985  85.1692164  69.2402315  13.7304001  84.3822639
  56.9409203  26.2435874  78.0641656  57.7784425  26.6532883  77.8475364
  57.1187470  25.3035316  78.0341850  68.8373635  23.9110955  73.7525489
  68.3220258  24.6815559  73.9913876  68.5650943  23.2376091  74.3758550
  66.4220746  18.7560656  78.8110727  65.5662342  18.3667506  78.6316366
  66.8347698  18.8352616  77.9510513  67.9519893  16.2906999  83.2102287
  67.4484688  16.2537134  82.3970092  68.2450499  17.1999742  83.2698944
  64.1962778  16.3745729  82.2168469  65.0615775  16.1788537  81.8574358
  64.2640287  16.1456080  83.1437826  73.8107909  26.6643309  75.6878662
  73.0337352  26.3254469  75.2433825  74.4899390  26.6695933  75.0133628
  68.6259938  21.7838047  75.5785270  68.3210074  22.0984196  76.4295413
  69.5790380  21.8619467  75.6212603  67.0706370  27.9428270  77.2278224
  66.5427731  27.2081030  76.9151462  66.5693873  28.7202947  76.9818193
  72.0499216  26.1377291  82.3445270  71.3922890  26.8276552  82.4325399
  72.8539615  26.5273723  82.6879257  61.8025098  18.6047936  79.5884836
  62.3768849  18.3823118  78.8558029  62.3896080  18.6736631  80.3413437
  70.8604675  24.4921663  80.3949212  71.3736556  25.1251655  80.8970922
  71.5105899  23.8922859  80.0292572  62.1294685  20.6352398  73.6080721
  61.2931997  20.9727084  73.9289996  61.9899454  20.5001377  72.6707858
  64.1047765  15.4789185  78.3159905  63.4512178  15.1638203  77.6916520
  64.0628239  14.8564926  79.0419728  65.2158970  25.7608480  70.2313197
  64.3086032  25.5297734  70.4304346  65.7130002  24.9646100  70.4187179
  68.1227049  34.4705988  73.1509883  67.4488748  34.7737684  73.7594841
  68.5092871  35.2735068  72.8015340  67.3385506  21.9671119  82.6407553
  66.4208067  22.1886066  82.4829241  67.7545649  22.0417429  81.7819260
  68.1220553  23.3662535  77.7710233  68.8692372  23.8783932  77.4617355
  68.3912143  23.0446587  78.6314627  66.3947204  25.8621075  74.7537187
  65.4858423  25.5780108  74.8509657  66.4242287  26.2820154  73.8940494
  71.6266471  29.4727665  78.5228355  71.1728798  28.6318575  78.5793545
  70.9960438  30.1089063  78.8603135  70.5699391  20.4019651  79.7529022
  69.8322147  19.8897037  80.0839265  70.8226164  19.9620032  78.9412299
  70.0699410  31.3104162  79.4578173  70.3622385  31.8709219  78.7390539
  70.5798031  31.6032723  80.2131332  70.6711018  13.1795903  80.3470792
  70.9769895  12.3193266  80.0596707  71.3963623  13.7713523  80.1469785
  56.9635374  23.5826589  78.7352390  56.7659774  22.9895950  78.0103456
  56.4082038  23.2778800  79.4528328  64.9432098  23.4749696  80.8546983
  64.9980707  22.5223532  80.7789459  64.1323300  23.6309135  81.3388281
  66.0923291  27.4029819  72.0925266  65.6542721  26.6865678  71.6330903
  66.8333732  27.6305934  71.5310357  62.8824457  22.0926756  78.6137362
  62.0692323  22.3920926  79.0202554  63.3783452  21.6982444  79.3311844
  65.0333035  32.0884513  80.5471626  64.9909214  32.3145359  79.6180158
  65.9495734  31.8547887  80.6957427  68.4798669  22.5568580  87.4452255
  68.8348057  22.7840053  88.3046721  69.1270800  22.8886957  86.8229511
  74.2096406  25.6787016  78.1501584  74.0714305  25.8688612  77.2222774
  73.8532625  26.4406399  78.6069636  62.3738532  19.6645111  84.2298596
  63.0137912  19.5233870  83.5321560  61.5416063  19.3779625  83.8537198
  74.2365786  27.7463543  83.1612856  74.6702292  27.6538832  84.0095910
  74.9497366  27.7221044  82.5232872  63.1498836  28.9647542  80.3433589
  63.9439435  28.4697862  80.1416164  62.4390529  28.4365405  79.9801294
  67.9693681  31.3465637  84.6945957  68.0230703  31.9156573  85.4623672
  67.1008462  31.5167522  84.3299994  59.4581600  23.1090623  76.4193342
  58.5279188  23.0475079  76.6363304  59.5539072  22.5866576  75.6229983
  59.3767149  19.6345436  79.0071583  59.6373966  20.5490769  78.8980744
  60.1984321  19.1669879  79.1568196  60.8492074  21.0483193  86.1770408
  61.5215127  20.8400555  85.5283057  60.0221861  20.8505279  85.7375640
  75.0981335  27.7887244  85.6945741  75.2917225  28.6933054  85.9405016
  74.9981953  27.3294663  86.5284326  66.7517646  17.6745134  88.1936069
  66.1045561  18.3735084  88.1000545  67.5218661  18.1081278  88.5612317
  70.1596444  27.9393986  91.2686622  70.0081950  27.7104538  90.3516706
  70.1501123  28.8964588  91.2817967  66.9281780  25.5125899  86.2532888
  67.8573840  25.6637059  86.0801856  66.5072810  25.6009920  85.3981535
  65.7270112  29.5376564  84.0231426  65.5881198  29.1695348  84.8957364
  64.9384708  30.0524203  83.8515384  66.3218264  34.6385660  75.3656963
  66.4970020  34.1673703  76.1802585  65.6351052  35.2651426  75.5938223
  67.2775327  28.9158166  81.4120264  66.9425160  28.8758936  82.3077914
  66.7779273  28.2502882  80.9390674  61.2519571  24.3225796  86.9372845
  61.1139369  23.5906035  87.5384384  62.1624495  24.2334696  86.6557033
  70.2134519  26.2614201  71.6857323  69.5963690  25.5361029  71.5890376
  69.7451007  27.0223561  71.3424398  63.8801872  24.0345756  86.4256525
  64.5901490  23.3938948  86.3843143  63.8371180  24.2858651  87.3482705
  71.8688651  30.9713109  89.3463104  71.8101197  30.2872329  88.6793687
  72.2708169  31.7132099  88.8943730  62.5930806  21.0210974  88.2452164
  62.0568163  20.5701712  88.8973760  62.0047514  21.1556882  87.5022628
  60.8879349  37.7875023  82.1396823  61.1275948  38.4193547  82.8175841
  60.0448546  37.4363063  82.4262182  62.0033065  20.4799625  70.8078628
  61.1262531  20.3588426  70.4440874  62.4790818  19.6885703  70.5557516
  71.8706058  28.9352693  87.5777083  70.9832837  28.5978615  87.7003482
  72.4404609  28.2035724  87.8145849  53.5235205  25.2676785  80.9020135
  54.2106245  24.9538515  80.3141150  53.3683334  26.1718149  80.6287386
  58.3269927  20.1566981  85.3305159  58.2428116  19.5492651  84.5955569
  57.5052634  20.6476000  85.3314655  65.4007211  33.5954145  84.5438327
  65.3277383  34.4009117  85.0557631  64.9584604  33.7946111  83.7186348
  65.1896991  32.8325915  78.0541148  64.4064513  33.3747595  78.1479373
  65.8889736  33.3499895  78.4535389  68.4993641  18.6420545  80.6975354
  68.9962341  17.8890507  80.3776424  67.7280623  18.6784861  80.1318563
  76.3523398  24.3460910  82.3393645  76.3413275  25.2285626  81.9687578
  75.4840778  23.9932461  82.1448182  67.8605895  33.4940979  86.6996485
  68.5733867  34.1288444  86.6272387  67.3695923  33.5904845  85.8836487
  69.5823422  27.3992232  78.2713777  68.6479700  27.5193694  78.1018481
  69.7600090  26.4964699  78.0073787  65.0828610  20.7837928  80.4247038
  64.7126397  20.2308968  81.1127944  65.5787702  20.1796061  79.8722038
  72.9695973  23.2409551  78.8063811  73.4356425  24.0737543  78.7324114
  73.4203474  22.7754533  79.5109070  62.9117808  31.2435423  87.5202056
  63.6127268  31.8771906  87.6731450  62.4412923  31.5850154  86.7597695
  71.0372204  29.5853373  75.8049963  71.3132048  29.4709967  76.7143837
  70.1676703  29.1870857  75.7662136  70.9412636  15.6090138  82.8454712
  70.0275716  15.8394365  83.0136919  71.3705737  15.6928582  83.6968745
  70.7119094  23.7980030  85.3454607  70.0590545  24.0455938  84.6907059
  71.0899474  22.9844168  85.0117084  67.6726268  33.8339723  79.4482777
  67.8548663  33.0161379  79.9110529  68.4959254  34.0507416  79.0107667
  68.0068434  32.7607909  76.7097825  68.5356200  32.2500363  76.0967987
  68.2696653  32.4450439  77.5743358  66.7606667  24.5399841  91.8320644
  66.0847304  24.4393971  92.5023019  67.5834301  24.3839055  92.2956641
  58.5085526  30.7771778  84.4533159  59.0938963  30.0315466  84.5861063
  58.3110365  31.0875735  85.3369823  61.3624182  33.8123025  79.4695601
  60.6934557  34.2969153  78.9859641  61.2237051  34.0592246  80.3838980
  53.1003181  23.3477378  83.1737602  53.1387281  22.8140969  83.9674720
  52.5943474  22.8212584  82.5548579  65.5029450  35.8466769  86.0678260
  66.0547758  36.0098390  86.8327345  65.8435644  36.4371207  85.3958284
  60.4793943  18.1941919  86.6700144  60.5435270  19.0556749  86.2577542
  60.4161064  17.5815920  85.9372503  59.9546216  20.2665051  90.3173179
  60.5818255  19.8842128  90.9310703  59.0974135  20.0479253  90.6828871
  70.3540325  30.6728026  91.9226914  70.8980229  31.2857985  91.4281869
  69.7727169  31.2307605  92.4393927  56.7311759  22.0741480  76.2491533
  57.0265200  21.1652159  76.1958587  55.8299794  22.0529220  75.9272536
  68.6397837  33.7948744  83.0541942  68.5148977  32.9938484  82.5452887
  69.2976929  34.2894938  82.5655912  60.2606006  20.1497477  82.2319082
  59.5392591  20.7633444  82.0926555  61.0499261  20.6855242  82.1535728
  70.7032746  31.5957764  84.6821492  69.7563081  31.4763116  84.6099819
  71.0515519  30.7080262  84.7647753  63.0632319  17.4851903  88.5059734
  63.5866721  17.7314200  89.2686043  62.8444653  18.3171938  88.0862871
  58.4599600  19.7555578  76.3730859  58.1312306  18.8752957  76.1905964
  58.8138971  19.7003247  77.2607248  67.7079179  31.3910481  80.8825844
  67.5604142  30.4627188  81.0633414  68.5332673  31.4130571  80.3982919
  61.5741423  20.0428548  76.7406336  61.9137496  20.5714469  76.0184945
  62.0213544  20.3808954  77.5164903  71.3113301  32.2139039  81.9690717
  72.2359848  32.0081901  81.8315168  71.1428604  31.9655440  82.8780058
  64.2684864  18.4265598  86.1909404  63.9281685  17.6273411  86.5930084
  63.5623871  18.7267309  85.6186237  64.9201336  15.5114911  84.6436727
  65.7427405  15.0375389  84.5215618  65.1639400  16.2905395  85.1435414
  63.5609571  18.5403169  74.9399629  64.2817933  18.9184422  74.4363346
  62.9374875  19.2592046  75.0434607  67.7040693  19.2448318  75.8757961
  67.9204308  20.1272956  75.5746789  67.2234761  18.8534532  75.1463603
  62.4439915  22.2034031  82.4528706  62.2984496  22.5174335  83.3452987
  61.9665118  22.8218932  81.8999605  64.3036298  19.1936579  82.5009595
  64.2897866  18.2977673  82.1641893  65.0208726  19.2007243  83.1347882
  66.1562428  19.6273920  84.5462723  65.8980206  20.5490990  84.5447053
  65.6247469  19.2304354  85.2363187  71.1008617  32.7324707  77.3252808
  71.2745495  32.1671129  76.5726661  71.5937508  33.5325602  77.1432298
  56.9185577  24.7439376  85.3916367  56.3739045  25.5199184  85.5236641
  57.7964927  25.0910180  85.2335489  63.7073194  18.0750960  77.7697166
  63.8289105  17.1467606  77.9688053  63.4175236  18.0889646  76.8575481
  66.5764384  15.7605870  80.9063885  66.5986081  15.8245203  79.9515865
  66.9932443  14.9210379  81.1004392  76.9548008  25.4961130  78.9443108
  77.3979154  24.7468455  78.5462231  76.0774519  25.4871266  78.5616840
  72.0883790  32.0491471  74.4249707  72.7834694  32.6698164  74.6437021
  72.4306940  31.1986822  74.7002084  57.7051599  23.8709272  88.2846524
  56.9633335  24.0191907  88.8711154  57.3844343  24.1317538  87.4213273
  73.9875213  29.4991177  75.9537037  74.5126537  29.8378449  75.2286357
  73.8997565  28.5638192  75.7700172  65.6495262  33.4125250  88.0826914
  65.9582388  33.1674397  88.9549614  66.4470744  33.6171889  87.5945784
  65.6715874  35.5663160  80.3132291  65.2320864  35.0739539  81.0065147
  66.4223991  35.0236128  80.0724366  58.1508213  31.7574701  80.3156919
  58.9766232  31.4578473  79.9355562  57.8002265  30.9882323  80.7646707
  63.1189746  31.1101169  82.3854592  62.4969755  30.4471874  82.0856820
  63.7894613  31.1362301  81.7028240  56.3516818  29.6761027  81.2745852
  55.5148726  29.2483202  81.0929853  56.3240463  29.8693471  82.2116643
  63.1914273  19.5882957  91.9787098  63.2402429  20.4645080  91.5964868
  63.7336787  19.0460350  91.4058741  73.6769119  30.1324080  91.2588235
  72.8864663  30.1148219  90.7192735  73.4402473  30.6712374  92.0137272
  73.7966994  26.9816547  88.5720964  73.8464999  26.8166554  89.5136487
  73.6880917  26.1143806  88.1818845  62.6803253  29.6605092  75.8613053
  62.8291373  30.3440557  75.2079725  63.4869696  29.6410182  76.3762508
  71.0870756  22.9647475  89.8880271  71.9880619  22.8253940  89.5964268
  71.1618731  23.1301930  90.8278448  65.4213562  20.3414329  88.7333457
  64.5516871  20.6347896  88.4616045  65.6573042  20.9254774  89.4540720
  75.2985191  29.4013488  88.8162985  75.0069999  29.7643469  89.6526446
  74.6857322  28.6880496  88.6376317  76.4980873  26.9666368  81.3365556
  77.3327764  27.4056172  81.5003116  76.6340002  26.4905021  80.5173801
  73.5472379  24.5246103  87.2843043  74.0226501  24.7173749  86.4761895
  72.6237944  24.5805289  87.0386427  60.4355886  25.6870270  76.8674122
  60.1901928  24.7832600  77.0654332  60.6051800  25.6887420  75.9253600
  68.1252595  16.5593946  86.2498877  68.6434539  17.2954973  85.9245366
  67.7707728  16.8657940  87.0845636  59.7051533  21.4198628  74.3660283
  59.0120778  21.4942983  73.7100319  59.4603285  20.6558971  74.8881800
  68.3765190  12.9794229  81.7699774  68.6566943  12.3117418  82.3960200
  69.1615797  13.1723325  81.2574438  66.1798658  32.1553223  73.3324800
  65.6072625  32.7743410  72.8795272  66.7531452  32.7052585  73.8664722
  72.2474048  21.4011863  85.5171349  73.1991471  21.5009961  85.5383573
  72.0777498  20.6090131  86.0269433  70.2688427  18.4867446  85.7030750
  69.6738360  18.7672459  85.0077239  69.9838124  18.9761347  86.4747491
  69.3995918  32.4390373  74.4633382  70.3326591  32.3735935  74.6666258
  69.3119131  33.2746640  74.0047915  72.0283935  31.7556243  71.4237330
  71.9497566  31.4216107  72.3173088  72.8493601  32.2478011  71.4228802
  74.7262126  24.6217983  84.6313649  74.6938446  23.6833983  84.8173332
  75.3362749  24.7002019  83.8979473  66.5645457  23.4914036  70.6740853
  67.5104561  23.3620244  70.7429271  66.1859702  22.7528697  71.1510281
  74.8756614  21.4129026  84.6771932  74.3595663  20.6287483  84.4901861
  75.7596563  21.0847743  84.8418451  72.5367341  15.1570042  80.6367744
  72.3392162  14.8485130  81.5211076  73.1467047  15.8831681  80.7665674
  80.5438676  25.6833989  83.7719685  81.2742064  25.4219278  84.3327389
  79.9345621  24.9462711  83.8121753  78.6253973  23.8241852  84.3694137
  77.8987136  23.6897817  83.7610628  78.2101260  24.1318681  85.1750855
  66.4484149  27.5431782  92.1341510  67.3687159  27.7210381  92.3281556
  66.4133732  26.5987827  91.9821209  64.7488374  21.4164012  70.6095738
  63.8419829  21.1197125  70.6858451  65.0264355  21.1193830  69.7430024
  55.6666314  22.7370375  81.0594784  55.3469099  21.8835684  80.7669158
  55.1199742  22.9518954  81.8152752  59.4446222  25.4532816  84.7764291
  59.6632232  26.3849924  84.7952325  59.8571996  25.0940791  85.5619095
  66.3650440  15.9600902  76.7639979  65.5551168  15.6147987  77.1395225
  67.0534856  15.6508445  77.3527591  68.2940988  15.0378949  78.3864276
  68.8472026  15.4574402  79.0454299  68.5311074  14.1114697  78.4287232
  64.3174087  21.0266022  94.1667040  64.2170814  21.9760379  94.0979131
  64.0995629  20.6984261  93.2943110  63.5187158  18.2750947  70.7507717
  64.3806322  18.6005846  71.0103534  63.7037503  17.4882443  70.2380783
  55.5354574  26.3573287  83.0287906  54.8418046  25.9427240  82.5157860
  56.2827565  26.3993823  82.4321325  71.6719795  17.1479474  77.8942940
  71.0918464  17.8064278  77.5120992  71.4055728  16.3256818  77.4830358
  70.1223361  16.5484531  80.0964260  70.6223140  16.6601066  79.2878579
  70.7658969  16.2445584  80.7365069  64.1805357  24.4563161  92.9832101
  63.6972439  25.2563521  93.1895990  64.2666296  24.4671106  92.0299545
  57.4491317  26.2891541  80.9053921  57.4262005  26.3879228  79.9535804
  57.7591953  27.1356691  81.2271087  60.1078695  28.3467696  85.0200535
  61.0621948  28.3151638  84.9530467  59.9091218  27.8858319  85.8350761
  60.6978077  26.9168812  87.5871333  61.5170966  27.4112890  87.6106170
  60.9714884  26.0000780  87.5588900  70.4544673  19.3079564  76.9499288
  69.5670528  19.5929215  76.7319483  70.8698662  19.1473327  76.1026565
  73.8059209  19.3326085  80.6653628  74.5819599  19.8222537  80.9378244
  73.0807343  19.7584139  81.1225497  76.2431768  20.0453704  81.7227568
  76.8376258  19.8049440  81.0120876  76.3158351  19.3260835  82.3501104
  58.4628923  33.8887315  82.0370733  58.3283391  33.1287716  81.4708731
  58.0460986  34.6128215  81.5699522  69.5987886  29.0724239  71.0447308
  70.3023737  29.2774241  71.6604964  68.8750535  29.6401001  71.3096392
  70.4285697  24.8234100  77.1649578  70.3720898  25.2802651  76.3257211
  70.9814039  24.0624785  76.9872421  74.2390503  20.6123832  77.9899698
  73.9827437  20.2120468  78.8207906  73.6143371  21.3267626  77.8649837
  78.5502840  23.3519905  80.4970989  77.9902398  23.4213094  81.2702551
  77.9446344  23.1760890  79.7770486  61.6198049  34.7856632  82.2489176
  61.5030433  35.7302065  82.1467866  60.7990496  34.4830194  82.6374975
  71.5074584  29.5106768  73.0945768  72.3420188  29.0787966  72.9123243
  71.3458927  29.3388782  74.0222663  71.1620476  26.0138881  74.4602108
  71.1069280  25.8483153  73.5190552  70.5366531  26.7214914  74.6164297
  55.9512991  21.2506946  88.2863530  56.5971855  20.7405900  88.7750755
  55.7430142  21.9875627  88.8606955  68.4766383  28.3187793  93.7855670
  69.3457543  28.4928445  93.4242305  67.9973135  29.1382210  93.6631400
  64.4716601  15.5146990  74.0387426  64.4595271  16.4588830  74.1955697
  65.3640023  15.3317136  73.7446887  62.6452563  35.4384894  85.4645104
  63.5479810  35.4708504  85.7811599  62.4189933  34.5085345  85.4791440
  64.4006165  34.1915881  82.1255183  63.4501796  34.1917742  82.0119555
  64.7038652  33.4448615  81.6091217  68.2868721  12.1089767  78.2933363
  67.5201117  11.5548254  78.4390045  68.6979426  12.1811636  79.1547514
  60.2910482  18.3974563  92.3838544  61.1541944  18.0411368  92.5941869
  59.7175893  18.0588457  93.0713948  80.1358859  40.0276419  83.1900945
  80.7737269  39.9083166  82.4864285  80.0179702  40.9757263  83.2488897
  76.9448565  39.9803847  83.1262470  76.6067077  39.8644912  82.2383005
  77.8138333  39.5795012  83.1063476  72.8035381  41.8339324  79.1159361
  72.2400246  41.7429260  78.3475649  72.6887776  41.0139228  79.5961853
  77.4268348  41.1338699  89.0848675  77.4156989  40.7391497  88.2129179
  77.5888988  40.4004771  89.6782447  70.3499813  43.3290515  81.9543581
  71.1421105  42.9881340  81.5389881  70.5896463  43.4385490  82.8745735
  72.3090567  42.5899428  74.8260960  73.0821443  42.0428415  74.6873836
  72.6615966  43.4543678  75.0375421  74.1475609  43.9175811  88.0327859
  73.8565475  44.8221442  87.9174526  74.7832594  43.9592338  88.7471929
  75.0731816  41.2952659  84.6229219  75.6695388  41.0708682  83.9086182
  75.1306788  40.5537405  85.2254667  74.6456845  38.7492095  72.4579410
  74.8982365  38.2273616  71.6962873  73.7081404  38.5858240  72.5606094
  79.6900127  37.7527873  80.2654153  80.4763217  37.3347296  79.9144570
  79.9538832  38.6573965  80.4335802  85.0908555  37.6903106  81.1687132
  85.8233726  37.1202323  81.4024961  84.3347910  37.3024707  81.6093637
  74.3653133  40.6520200  74.6603785  74.2489391  39.9765104  75.3284869
  74.4755393  40.1652574  73.8435938  76.7084674  40.1130348  78.3650474
  76.3442881  39.5860969  79.0763396  77.5651790  39.7228817  78.1916960
  82.6133975  31.4024680  85.6281740  82.2817300  32.2720091  85.4042955
  82.0179588  31.0860964  86.3075771  76.3490161  35.1420247  73.3611823
  76.5164564  36.0100484  73.7282294  76.1587330  35.3047529  72.4373112
  79.1065494  43.6037226  85.0277653  78.8066217  44.5062265  84.9193460
  78.7616554  43.3369409  85.8798806  72.5577976  40.0551023  81.0614357
  71.6328472  39.9227237  81.2692049  72.8062389  40.8345242  81.5584300
  82.5062638  36.1219766  82.7075090  81.5979516  36.0535175  82.4133851
  82.4550234  36.5991711  83.5356916  76.3279382  37.5977905  74.3458489
  76.2079007  38.0434956  75.1843970  75.6331970  37.9463222  73.7872028
  69.9186787  39.6984297  81.8958147  70.0479168  39.9518775  82.8097558
  69.2384238  40.2912005  81.5762802  76.5803504  37.5409412  90.6509988
  75.8036838  38.1003332  90.6412852  77.2194067  38.0266195  91.1724858
  84.3724285  34.3236205  84.4852964  83.7298665  34.6168738  83.8392759
  83.8679213  34.2089125  85.2906161  82.0264448  38.0699378  75.1738824
  82.9382304  38.3026765  74.9986521  81.5174095  38.6536422  74.6113902
  74.8349876  40.3494865  90.2127955  75.5764561  40.8879909  89.9362778
  74.1286862  40.9761154  90.3699506  80.3105216  42.4924006  88.8100116
  80.7188572  42.0506416  88.0654748  79.5882477  41.9176633  89.0634309
  76.6636286  37.4296613  86.1833673  77.5097481  37.8536026  86.3268322
  76.6034924  36.7730237  86.8772236  80.6334031  43.0525196  82.5652405
  80.0042893  43.2170911  81.8628473  80.2459693  43.4666806  83.3363369
  79.8135731  35.0900981  87.8414847  79.5696663  35.8443041  87.3049122
  80.0895662  35.4686329  88.6762094  81.7674194  41.6339593  86.5192112
  81.9791089  42.2771353  85.8426493  81.7203942  40.8001910  86.0514042
  79.3700423  34.2457414  83.4228684  78.5084902  34.5438667  83.7145422
  79.3962858  34.4627813  82.4909717  76.1861992  42.7899604  79.8302490
  76.6500338  43.0687307  79.0407113  75.9218791  41.8883049  79.6475581
  73.0786073  42.3371086  82.7682253  73.6487431  42.7658354  82.1299738
  73.6694185  42.0553671  83.4666439  75.1230878  38.9122757  76.6392055
  75.8254922  39.3643801  77.1065982  74.7911507  38.2706576  77.2671948
  73.5711240  37.5034513  91.0143265  72.9409901  38.1850794  91.2478661
  73.4647328  37.3917595  90.0696403  68.8656212  37.1706310  81.9409189
  68.0755266  37.4263838  81.4649299  69.3567460  37.9854647  82.0461229
  82.8820022  44.5111549  84.6914470  83.7037466  44.1091736  84.4097151
  82.8782425  44.4079783  85.6430585  70.8170958  37.5350889  78.8992665
  70.0202121  37.6469583  79.4176161  70.5896550  37.8737541  78.0333556
  76.6476625  44.0595592  86.8475180  76.7121058  44.5215999  87.6833352
  75.9387549  43.4292957  86.9757490  67.1493915  37.4236800  84.3724180
  67.4001954  38.3083810  84.6381756  67.6853464  37.2441401  83.5999271
  90.9726015  40.8550297  81.0399441  90.2189723  40.2857695  80.8843446
  91.1073556  40.8212962  81.9870076  72.8491983  31.8055279  93.3768516
  72.4558928  31.2521478  94.0516160  73.6658123  32.1165858  93.7675033
  69.8154040  43.2439138  77.2882086  70.3278561  44.0382388  77.4387650
  70.4676753  42.5465428  77.2215687  71.6248925  46.3604894  79.3704839
  71.8015554  47.2822858  79.1825823  72.4205759  46.0463313  79.7999218
  75.7659944  33.2213158  90.9688772  76.5069657  33.8220312  90.8893235
  75.9977867  32.4790796  90.4106815  70.9101282  38.4069526  89.2467002
  70.7954797  37.5054783  89.5474101  70.0545799  38.6533222  88.8951818
  77.9893119  46.3487266  90.8454503  77.5456974  45.5623645  90.5275407
  78.6510333  46.5366416  90.1798393  72.7480241  47.8783068  85.3715181
  73.2987666  47.7500131  84.5992175  71.9091717  48.1777957  85.0210074
  80.0874358  46.6290066  88.8735904  80.0692833  47.4498947  88.3816173
  81.0094278  46.5044141  89.0986045  76.5447412  44.1434195  89.7159412
  77.0775749  43.3822484  89.4858720  76.0161493  43.8507847  90.4583567
  79.7117107  29.2494261  85.2453054  79.3681376  30.1395903  85.1692164
  80.0796069  29.0595919  84.3822639  67.7802957  41.5727792  78.0641656
  68.6178179  41.9824800  77.8475364  67.9581225  40.6327234  78.0341850
  79.6767389  39.2402872  73.7525489  79.1614013  40.0107477  73.9913876
  79.4044698  38.5668009  74.3758550  77.2614500  34.0852573  78.8110727
  76.4056097  33.6959424  78.6316366  77.6741452  34.1644534  77.9510513
  78.7913647  31.6198917  83.2102287  78.2878443  31.5829052  82.3970092
  79.0844254  32.5291659  83.2698944  75.0356533  31.7037646  82.2168469
  75.9009530  31.5080455  81.8574358  75.1034042  31.4747998  83.1437826
  79.4653693  37.1129965  75.5785270  79.1603828  37.4276114  76.4295413
  80.4184135  37.1911384  75.6212603  77.9100124  43.2720188  77.2278224
  77.3821486  42.5372947  76.9151462  77.4087627  44.0494864  76.9818193
  82.8892970  41.4669208  82.3445270  82.2316645  42.1568470  82.4325399
  83.6933370  41.8565640  82.6879257  72.6418852  33.9339854  79.5884836
  73.2162604  33.7115036  78.8558029  73.2289834  34.0028549  80.3413437
  81.6998429  39.8213581  80.3949212  82.2130311  40.4543573  80.8970922
  82.3499653  39.2214777  80.0292572  72.9688439  35.9644315  73.6080721
  72.1325751  36.3019002  73.9289996  72.8293209  35.8293295  72.6707858
  74.9441520  30.8081103  78.3159905  74.2905932  30.4930120  77.6916520
  74.9021994  30.1856844  79.0419728  76.0552725  41.0900398  70.2313197
  75.1479786  40.8589652  70.4304346  76.5523757  40.2938017  70.4187179
  78.1779260  37.2963037  82.6407553  77.2601821  37.5177984  82.4829241
  78.5939404  37.3709347  81.7819260  78.9614308  38.6954452  77.7710233
  79.7086127  39.2075849  77.4617355  79.2305897  38.3738505  78.6314627
  77.2340958  41.1912993  74.7537187  76.3252177  40.9072026  74.8509657
  77.2636042  41.6112072  73.8940494  81.4093145  35.7311569  79.7529022
  80.6715902  35.2188955  80.0839265  81.6619919  35.2911950  78.9412299
  80.9093165  46.6396079  79.4578173  81.2016139  47.2001136  78.7390539
  81.4191785  46.9324640  80.2131332  81.5104772  28.5087821  80.3470792
  81.8163649  27.6485184  80.0596707  82.2357377  29.1005441  80.1469785
  67.8029128  38.9118507  78.7352390  67.6053528  38.3187868  78.0103456
  67.2475792  38.6070717  79.4528328  75.7825852  38.8041614  80.8546983
  75.8374462  37.8515450  80.7789459  74.9717054  38.9601053  81.3388281
  76.9317046  42.7321737  72.0925266  76.4936476  42.0157596  71.6330903
  77.6727487  42.9597851  71.5310357  73.7218212  37.4218673  78.6137362
  72.9086078  37.7212844  79.0202554  74.2177206  37.0274362  79.3311844
  75.8726790  47.4176430  80.5471626  75.8302969  47.6437277  79.6180158
  76.7889489  47.1839805  80.6957427  79.3192424  37.8860498  87.4452255
  79.6741811  38.1131971  88.3046721  79.9664555  38.2178875  86.8229511
  73.2132287  34.9937029  84.2298596  73.8531666  34.8525788  83.5321560
  72.3809817  34.7071542  83.8537198  85.0759540  43.0755461  83.1612856
  85.5096047  42.9830750  84.0095910  85.7891121  43.0512961  82.5232872
  73.9892591  44.2939459  80.3433589  74.7833189  43.7989779  80.1416164
  73.2784283  43.7657322  79.9801294  78.8087435  46.6757555  84.6945957
  78.8624457  47.2448491  85.4623672  77.9402216  46.8459440  84.3299994
  70.2975354  38.4382541  76.4193342  69.3672942  38.3766997  76.6363304
  70.3932826  37.9158494  75.6229983  70.2160903  34.9637354  79.0071583
  70.4767720  35.8782687  78.8980744  71.0378075  34.4961796  79.1568196
  71.6885829  36.3775111  86.1770408  72.3608882  36.1692473  85.5283057
  70.8615615  36.1797197  85.7375640  77.5911401  33.0037052  88.1936069
  76.9439316  33.7027002  88.1000545  78.3612416  33.4373196  88.5612317
  80.9990198  43.2685904  91.2686622  80.8475705  43.0396456  90.3516706
  80.9894878  44.2256506  91.2817967  77.7675535  40.8417817  86.2532888
  78.6967595  40.9928976  86.0801856  77.3466565  40.9301838  85.3981535
  76.5663867  44.8668481  84.0231426  76.4274952  44.4987266  84.8957364
  75.7778463  45.3816121  83.8515384  78.1169082  44.2450084  81.4120264
  77.7818914  44.2050854  82.3077914  77.6173027  43.5794800  80.9390674
  72.0913326  39.6517714  86.9372845  71.9533124  38.9197953  87.5384384
  73.0018249  39.5626614  86.6557033  74.7195626  39.3637673  86.4256525
  75.4295245  38.7230866  86.3843143  74.6764935  39.6150568  87.3482705
  82.7082405  46.3005027  89.3463104  82.6494951  45.6164247  88.6793687
  83.1101923  47.0424017  88.8943730  73.4324560  36.3502891  88.2452164
  72.8961917  35.8993630  88.8973760  72.8441269  36.4848800  87.5022628
  71.7273104  53.1166941  82.1396823  71.9669702  53.7485465  82.8175841
  70.8842300  52.7654981  82.4262182  72.8426819  35.8091543  70.8078628
  71.9656286  35.6880343  70.4440874  73.3184572  35.0177621  70.5557516
  82.7099812  44.2644611  87.5777083  81.8226591  43.9270532  87.7003482
  83.2798363  43.5327642  87.8145849  64.3628959  40.5968702  80.9020135
  65.0499999  40.2830432  80.3141150  64.2077088  41.5010067  80.6287386
  69.1663682  35.4858899  85.3305159  69.0821870  34.8784568  84.5955569
  68.3446388  35.9767917  85.3314655  76.2400966  48.9246063  84.5438327
  76.1671137  49.7301034  85.0557631  75.7978359  49.1238029  83.7186348
  76.0290745  48.1617833  78.0541148  75.2458267  48.7039513  78.1479373
  76.7283491  48.6791813  78.4535389  79.3387395  33.9712462  80.6975354
  79.8356095  33.2182425  80.3776424  78.5674377  34.0076779  80.1318563
  87.1917153  39.6752828  82.3393645  87.1807029  40.5577543  81.9687578
  86.3234532  39.3224379  82.1448182  78.6999649  48.8232897  86.6996485
  79.4127621  49.4580362  86.6272387  78.2089678  48.9196763  85.8836487
  80.4217176  42.7284150  78.2713777  79.4873455  42.8485612  78.1018481
  80.5993845  41.8256616  78.0073787  75.9222364  36.1129845  80.4247038
  75.5520152  35.5600886  81.1127944  76.4181457  35.5087979  79.8722038
  73.7511563  46.5727340  87.5202056  74.4521022  47.2063823  87.6731450
  73.2806678  46.9142072  86.7597695  81.7806390  30.9382056  82.8454712
  80.8669470  31.1686283  83.0136919  82.2099492  31.0220500  83.6968745
  81.5512849  39.1271948  85.3454607  80.8984299  39.3747855  84.6907059
  81.9293229  38.3136086  85.0117084  78.5120023  49.1631641  79.4482777
  78.6942417  48.3453297  79.9110529  79.3353009  49.3799333  79.0107667
  77.6000422  39.8691759  91.8320644  76.9241059  39.7685888  92.5023019
  78.4228056  39.7130973  92.2956641  69.3479281  46.1063695  84.4533159
  69.9332718  45.3607383  84.5861063  69.1504119  46.4167652  85.3369823
  72.2017936  49.1414943  79.4695601  71.5328311  49.6261071  78.9859641
  72.0630806  49.3884163  80.3838980  63.9396936  38.6769296  83.1737602
  63.9781035  38.1432886  83.9674720  63.4337228  38.1504501  82.5548579
  76.3423205  51.1758686  86.0678260  76.8941513  51.3390308  86.8327345
  76.6829398  51.7663124  85.3958284  71.3187698  33.5233836  86.6700144
  71.3829024  34.3848667  86.2577542  71.2554818  32.9107838  85.9372503
  70.7939970  35.5956969  90.3173179  71.4212009  35.2134046  90.9310703
  69.9367889  35.3771171  90.6828871  81.1934079  46.0019944  91.9226914
  81.7373983  46.6149902  91.4281869  80.6120924  46.5599522  92.4393927
  67.5705513  37.4033398  76.2491533  67.8658954  36.4944076  76.1958587
  66.6693549  37.3821137  75.9272536  79.4791592  49.1240662  83.0541942
  79.3542731  48.3230402  82.5452887  80.1370683  49.6186855  82.5655912
  71.0999760  35.4789394  82.2319082  70.3786346  36.0925362  82.0926555
  71.8893016  36.0147159  82.1535728  81.5426500  46.9249682  84.6821492
  80.5956836  46.8055033  84.6099819  81.8909273  46.0372180  84.7647753
  73.9026074  32.8143821  88.5059734  74.4260476  33.0606117  89.2686043
  73.6838407  33.6463856  88.0862871  69.2993355  35.0847496  76.3730859
  68.9706061  34.2044874  76.1905964  69.6532725  35.0295164  77.2607248
  78.5472934  46.7202398  80.8825844  78.3997896  45.7919106  81.0633414
  79.3726427  46.7422489  80.3982919  72.4135178  35.3720465  76.7406336
  72.7531250  35.9006387  76.0184945  72.8607298  35.7100871  77.5164903
  82.1507055  47.5430957  81.9690717  83.0753603  47.3373818  81.8315168
  81.9822359  47.2947358  82.8780058  75.1078619  33.7557516  86.1909404
  74.7675439  32.9565329  86.5930084  74.4017625  34.0559227  85.6186237
  75.7595091  30.8406828  84.6436727  76.5821160  30.3667307  84.5215618
  76.0033154  31.6197312  85.1435414  74.4003325  33.8695087  74.9399629
  75.1211688  34.2476340  74.4363346  73.7768629  34.5883964  75.0434607
  78.5434448  34.5740236  75.8757961  78.7598062  35.4564874  75.5746789
  78.0628515  34.1826449  75.1463603  73.2833669  37.5325949  82.4528706
  73.1378250  37.8466252  83.3452987  72.8058873  38.1510849  81.8999605
  75.1430052  34.5228497  82.5009595  75.1291621  33.6269590  82.1641893
  75.8602480  34.5299161  83.1347882  76.9956183  34.9565837  84.5462723
  76.7373961  35.8782908  84.5447053  76.4641223  34.5596272  85.2363187
  67.7579332  40.0731293  85.3916367  67.2132800  40.8491101  85.5236641
  68.6358681  40.4202098  85.2335489  74.5466948  33.4042877  77.7697166
  74.6682859  32.4759524  77.9688053  74.2568991  33.4181563  76.8575481
  77.4158139  31.0897788  80.9063885  77.4379835  31.1537121  79.9515865
  77.8326198  30.2502296  81.1004392  68.5445353  39.2001190  88.2846524
  67.8027089  39.3483825  88.8711154  68.2238098  39.4609455  87.4213273
  76.4889016  48.7417168  88.0826914  76.7976142  48.4966315  88.9549614
  77.2864498  48.9463806  87.5945784  68.9901967  47.0866618  80.3156919
  69.8159987  46.7870390  79.9355562  68.6396019  46.3174241  80.7646707
  73.9583500  46.4393087  82.3854592  73.3363509  45.7763792  82.0856820
  74.6288367  46.4654219  81.7028240  67.1910572  45.0052945  81.2745852
  66.3542480  44.5775119  81.0929853  67.1634218  45.1985388  82.2116643
  74.0308028  34.9174875  91.9787098  74.0796183  35.7936998  91.5964868
  74.5730542  34.3752268  91.4058741  84.5162873  45.4615998  91.2588235
  83.7258417  45.4440137  90.7192735  84.2796228  46.0004292  92.0137272
  84.6360748  42.3108464  88.5720964  84.6858753  42.1458472  89.5136487
  84.5274672  41.4435723  88.1818845  81.9264511  38.2939392  89.8880271
  82.8274374  38.1545857  89.5964268  82.0012485  38.4593847  90.8278448
  76.2607316  35.6706247  88.7333457  75.3910626  35.9639813  88.4616045
  76.4966797  36.2546692  89.4540720  86.1378945  44.7305406  88.8162985
  85.8463754  45.0935386  89.6526446  85.5251077  44.0172414  88.6376317
  87.3374628  42.2958286  81.3365556  88.1721519  42.7348090  81.5003116
  87.4733756  41.8196939  80.5173801  84.3866134  39.8538021  87.2843043
  84.8620255  40.0465667  86.4761895  83.4631699  39.9097206  87.0386427
  71.2749640  41.0162188  76.8674122  71.0295682  40.1124518  77.0654332
  71.4445555  41.0179338  75.9253600  78.9646350  31.8885864  86.2498877
  79.4828294  32.6246891  85.9245366  78.6101483  32.1949857  87.0845636
  70.5445288  36.7490545  74.3660283  69.8514533  36.8234900  73.7100319
  70.2997040  35.9850889  74.8881800  79.2158944  28.3086147  81.7699774
  79.4960698  27.6409336  82.3960200  80.0009551  28.5015242  81.2574438
  83.0867802  36.7303781  85.5171349  84.0385225  36.8301878  85.5383573
  82.9171253  35.9382049  86.0269433  81.1082182  33.8159364  85.7030750
  80.5132114  34.0964377  85.0077239  80.8231879  34.3053265  86.4747491
  85.5655880  39.9509900  84.6313649  85.5332200  39.0125901  84.8173332
  86.1756504  40.0293937  83.8979473  77.4039211  38.8205953  70.6740853
  78.3498316  38.6912161  70.7429271  77.0253456  38.0820615  71.1510281
  85.7150369  36.7420944  84.6771932  85.1989417  35.9579400  84.4901861
  86.5990317  36.4139660  84.8418451  83.3761096  30.4861959  80.6367744
  83.1785917  30.1777047  81.5211076  83.9860801  31.2123598  80.7665674
  91.3832430  41.0125907  83.7719685  92.1135819  40.7511195  84.3327389
  90.7739376  40.2754629  83.8121753  89.4647727  39.1533770  84.3694137
  88.7380891  39.0189735  83.7610628  89.0495014  39.4610598  85.1750855
  77.2877904  42.8723699  92.1341510  78.2080913  43.0502298  92.3281556
  77.2527487  41.9279745  91.9821209  75.5882128  36.7455930  70.6095738
  74.6813584  36.4489042  70.6858451  75.8658109  36.4485748  69.7430024
  66.5060069  38.0662293  81.0594784  66.1862853  37.2127601  80.7669158
  65.9593497  38.2810871  81.8152752  70.2839976  40.7824734  84.7764291
  70.5025986  41.7141842  84.7952325  70.6965750  40.4232708  85.5619095
  77.2044194  31.2892819  76.7639979  76.3944922  30.9439904  77.1395225
  77.8928611  30.9800363  77.3527591  79.1334742  30.3670866  78.3864276
  79.6865781  30.7866320  79.0454299  79.3704829  29.4406614  78.4287232
  75.1567842  36.3557940  94.1667040  75.0564568  37.3052297  94.0979131
  74.9389384  36.0276179  93.2943110  74.3580913  33.6042865  70.7507717
  75.2200077  33.9297763  71.0103534  74.5431257  32.8174361  70.2380783
  66.3748329  41.6865205  83.0287906  65.6811800  41.2719157  82.5157860
  67.1221320  41.7285741  82.4321325  82.5113549  32.4771391  77.8942940
  81.9312218  33.1356195  77.5120992  82.2449482  31.6548736  77.4830358
  80.9617116  31.8776449  80.0964260  81.4616894  31.9892984  79.2878579
  81.6052724  31.5737502  80.7365069  75.0199112  39.7855079  92.9832101
  74.5366193  40.5855439  93.1895990  75.1060051  39.7963024  92.0299545
  68.2885071  41.6183458  80.9053921  68.2655759  41.7171146  79.9535804
  68.5985708  42.4648609  81.2271087  70.9472449  43.6759613  85.0200535
  71.9015703  43.6443556  84.9530467  70.7484973  43.2150237  85.8350761
  71.5371831  42.2460729  87.5871333  72.3564720  42.7404808  87.6106170
  71.8108639  41.3292698  87.5588900  81.2938427  34.6371482  76.9499288
  80.4064282  34.9221132  76.7319483  81.7092416  34.4765245  76.1026565
  84.6452964  34.6618003  80.6653628  85.4213354  35.1514455  80.9378244
  83.9201098  35.0876057  81.1225497  87.0825522  35.3745622  81.7227568
  87.6770013  35.1341358  81.0120876  87.1552106  34.6552752  82.3501104
  69.3022678  49.2179233  82.0370733  69.1677146  48.4579634  81.4708731
  68.8854740  49.9420133  81.5699522  81.2679451  40.1526018  77.1649578
  81.2114653  40.6094569  76.3257211  81.8207794  39.3916702  76.9872421
  85.0784257  35.9415750  77.9899698  84.8221191  35.5412385  78.8207906
  84.4537125  36.6559543  77.8649837  89.3896595  38.6811823  80.4970989
  88.8296153  38.7505012  81.2702551  88.7840098  38.5052807  79.7770486
  72.4591804  50.1148550  82.2489176  72.3424188  51.0593982  82.1467866
  71.6384250  49.8122111  82.6374975  66.7906745  36.5798863  88.2863530
  67.4365609  36.0697817  88.7750755  66.5823897  37.3167545  88.8606955
  79.3160138  43.6479711  93.7855670  80.1851297  43.8220363  93.4242305
  78.8366889  44.4674128  93.6631400  75.3110356  30.8438908  74.0387426
  75.2989026  31.7880748  74.1955697  76.2033778  30.6609053  73.7446887
  73.4846318  50.7676812  85.4645104  74.3873565  50.8000422  85.7811599
  73.2583688  49.8377263  85.4791440  75.2399920  49.5207798  82.1255183
  74.2895551  49.5209660  82.0119555  75.5432406  48.7740533  81.6091217
  79.1262475  27.4381685  78.2933363  78.3594871  26.8840171  78.4390045
  79.5373180  27.5103553  79.1547514  71.1304236  33.7266480  92.3838544
  71.9935698  33.3703285  92.5941869  70.5569647  33.3880375  93.0713948
  88.2662103  56.4630617  89.0848675  88.2550743  56.0683415  88.2129179
  88.4282742  55.7296689  89.6782447  84.9869364  59.2467728  88.0327859
  84.6959230  60.1513359  87.9174526  85.6226348  59.2884256  88.7471929
  84.9280029  65.6973464  77.9948621  84.8504058  66.6481289  78.0737101
  84.3241672  65.3519337  78.6523547  87.4197258  52.8701330  90.6509988
  86.6430593  53.4295250  90.6412852  88.0587822  53.3558113  91.1724858
  85.6743631  55.6786783  90.2127955  86.4158315  56.2171827  89.9362778
  84.9680616  56.3053072  90.3699506  84.4104995  52.8326431  91.0143265
  83.7803655  53.5142712  91.2478661  84.3041082  52.7209513  90.0696403
  79.7049967  52.4998227  81.9409189  78.9149021  52.7555756  81.4649299
  80.1961214  53.3146565  82.0461229  93.7213776  59.8403466  84.6914470
  94.5431220  59.4383654  84.4097151  93.7176179  59.7371701  85.6430585
  77.9887670  52.7528718  84.3724180  78.2395708  53.6375728  84.6381756
  78.5247218  52.5733319  83.5999271 101.8119770  56.1842215  81.0399441
 101.0583478  55.6149613  80.8843446 101.9467311  56.1504879  81.9870076
  83.6885737  47.1347197  93.3768516  83.2952683  46.5813396  94.0516160
  84.5051878  47.4457775  93.7675033  86.6053698  48.5505076  90.9688772
  87.3463412  49.1512229  90.8893235  86.8371621  47.8082714  90.4106815
  81.7495036  53.7361443  89.2467002  81.6348551  52.8346701  89.5474101
  80.8939554  53.9825140  88.8951818  88.8286874  61.6779184  90.8454503
  88.3850728  60.8915562  90.5275407  89.4904088  61.8658334  90.1798393
  90.9268112  61.9581984  88.8735904  90.9086587  62.7790865  88.3816173
  91.8488032  61.8336059  89.0986045  87.3841166  59.4726113  89.7159412
  87.9169503  58.7114401  89.4858720  86.8555247  59.1799765  90.4583567
  89.8014558  65.1289823  73.1509883  89.1276257  65.4321520  73.7594841
  90.1880380  65.9318903  72.8015340  92.3498527  43.8379738  80.3470792
  92.6557404  42.9777102  80.0596707  93.0751132  44.4297358  80.1469785
  89.6481190  62.0049473  84.6945957  89.7018212  62.5740409  85.4623672
  88.7795971  62.1751358  84.3299994  96.7768844  58.4471079  85.6945741
  96.9704734  59.3516890  85.9405016  96.6769462  57.9878498  86.5284326
  91.8383953  58.5977822  91.2686622  91.6869459  58.3688373  90.3516706
  91.8288632  59.5548423  91.2817967  88.0005773  65.2969495  75.3656963
  88.1757529  64.8257539  76.1802585  87.3138561  65.9235262  75.5938223
  82.9307080  54.9809632  86.9372845  82.7926878  54.2489871  87.5384384
  83.8412004  54.8918532  86.6557033  93.5476160  61.6296944  89.3463104
  93.4888706  60.9456164  88.6793687  93.9495678  62.3715934  88.8943730
  84.2718315  51.6794809  88.2452164  83.7355672  51.2285547  88.8973760
  83.6835023  51.8140718  87.5022628  82.5666858  68.4458858  82.1396823
  82.8063457  69.0777382  82.8175841  81.7236055  68.0946898  82.4262182
  93.5493567  59.5936528  87.5777083  92.6620346  59.2562450  87.7003482
  94.1192118  58.8619560  87.8145849  80.0057436  50.8150817  85.3305159
  79.9215625  50.2076486  84.5955569  79.1840143  51.3059835  85.3314655
  87.0794720  64.2537981  84.5438327  87.0064892  65.0592952  85.0557631
  86.6372113  64.4529946  83.7186348  98.0310907  55.0044746  82.3393645
  98.0200784  55.8869461  81.9687578  97.1628287  54.6516296  82.1448182
  89.5393404  64.1524815  86.6996485  90.2521376  64.7872279  86.6272387
  89.0483432  64.2488681  85.8836487  84.5905317  61.9019258  87.5202056
  85.2914777  62.5355741  87.6731450  84.1200432  62.2433990  86.7597695
  89.3513777  64.4923559  79.4482777  89.5336172  63.6745215  79.9110529
  90.1746763  64.7091251  79.0107667  89.6855943  63.4191744  76.7097825
  90.2143709  62.9084198  76.0967987  89.9484162  63.1034274  77.5743358
  88.4394176  55.1983677  91.8320644  87.7634813  55.0977806  92.5023019
  89.2621810  55.0422890  92.2956641  87.1816959  66.5050604  86.0678260
  87.7335267  66.6682226  86.8327345  87.5223153  67.0955042  85.3958284
  82.1581452  48.8525754  86.6700144  82.2222779  49.7140585  86.2577542
  82.0948573  48.2399756  85.9372503  81.6333725  50.9248886  90.3173179
  82.2605764  50.5425964  90.9310703  80.7761644  50.7063088  90.6828871
  92.0327834  61.3311862  91.9226914  92.5767737  61.9441820  91.4281869
  91.4514678  61.8891440  92.4393927  90.3185346  64.4532580  83.0541942
  90.1936486  63.6522319  82.5452887  90.9764438  64.9478773  82.5655912
  92.3820255  62.2541600  84.6821492  91.4350590  62.1346951  84.6099819
  92.7303028  61.3664098  84.7647753  84.7419828  48.1435739  88.5059734
  85.2654230  48.3898035  89.2686043  84.5232161  48.9755773  88.0862871
  92.9900810  62.8722875  81.9690717  93.9147357  62.6665736  81.8315168
  92.8216113  62.6239276  82.8780058  92.7796126  63.3908542  77.3252808
  92.9533004  62.8254965  76.5726661  93.2725017  64.1909437  77.1432298
  98.6335517  56.1544965  78.9443108  99.0766663  55.4052290  78.5462231
  97.7562028  56.1455101  78.5616840  93.7671299  62.7075307  74.4249707
  94.4622203  63.3281999  74.6437021  94.1094449  61.8570658  74.7002084
  79.3839108  54.5293107  88.2846524  78.6420844  54.6775743  88.8711154
  79.0631852  54.7901373  87.4213273  87.3282770  64.0709086  88.0826914
  87.6369897  63.8258232  88.9549614  88.1258253  64.2755724  87.5945784
  87.3503383  66.2246995  80.3132291  86.9108373  65.7323374  81.0065147
  88.1011500  65.6819963  80.0724366  84.8701782  50.2466792  91.9787098
  84.9189938  51.1228915  91.5964868  85.4124296  49.7044185  91.4058741
  95.3556628  60.7907916  91.2588235  94.5652172  60.7732055  90.7192735
  95.1189982  61.3296209  92.0137272  95.4754503  57.6400382  88.5720964
  95.5252508  57.4750389  89.5136487  95.3668426  56.7727641  88.1818845
  96.9772700  60.0597324  88.8162985  96.6857508  60.4227304  89.6526446
  96.3644831  59.3464332  88.6376317  95.2259888  55.1829938  87.2843043
  95.7014010  55.3757584  86.4761895  94.3025453  55.2389124  87.0386427
  91.0783427  63.0974208  74.4633382  92.0114100  63.0319770  74.6666258
  90.9906640  63.9330475  74.0047915  93.7071444  62.4140079  71.4237330
  93.6285075  62.0799942  72.3173088  94.5281110  62.9061847  71.4228802
  96.4049635  55.2801818  84.6313649  96.3725955  54.3417819  84.8173332
  97.0150258  55.3585855  83.8979473  94.2154850  45.8153877  80.6367744
  94.0179671  45.5068965  81.5211076  94.8254556  46.5415516  80.7665674
 102.2226185  56.3417825  83.7719685 102.9529573  56.0803113  84.3327389
 101.6133130  55.6046547  83.8121753 100.3041482  54.4825687  84.3694137
  99.5774645  54.3481652  83.7610628  99.8888769  54.7902516  85.1750855
  88.1271658  58.2015617  92.1341510  89.0474668  58.3794216  92.3281556
  88.0921241  57.2571662  91.9821209  85.9961596  51.6849857  94.1667040
  85.8958323  52.6344214  94.0979131  85.7783138  51.3568096  93.2943110
  85.8592866  55.1146996  92.9832101  85.3759948  55.9147356  93.1895990
  85.9453805  55.1254941  92.0299545  82.3765586  57.5752647  87.5871333
  83.1958475  58.0696726  87.6106170  82.6502393  56.6584615  87.5588900
 100.2290349  54.0103740  80.4970989  99.6689907  54.0796930  81.2702551
  99.6233853  53.8344725  79.7770486  77.6300500  51.9090781  88.2863530
  78.2759364  51.3989735  88.7750755  77.4217651  52.6459463  88.8606955
  90.1553892  58.9771628  93.7855670  91.0245052  59.1512281  93.4242305
  89.6760644  59.7966045  93.6631400  84.3240072  66.0968729  85.4645104
  85.2267319  66.1292340  85.7811599  84.0977442  65.1669180  85.4791440
  86.0793674  64.8499716  82.1255183  85.1289305  64.8501578  82.0119555
  86.3826161  64.1032451  81.6091217  89.9656230  42.7673602  78.2933363
  89.1988626  42.2132089  78.4390045  90.3766935  42.8395471  79.1547514
  81.9697991  49.0558398  92.3838544  82.8329453  48.6995203  92.5941869
  81.3963402  48.7172293  93.0713948 101.8146368  70.6860254  83.1900945
 102.4524778  70.5667002  82.4864285 101.6967211  71.6341098  83.2488897
  98.6236074  70.6387682  83.1262470  98.2854586  70.5228747  82.2383005
  99.4925842  70.2378848  83.1063476  94.4822890  72.4923159  79.1159361
  93.9187755  72.4013096  78.3475649  94.3675285  71.6723063  79.5961853
  99.1055857  71.7922534  89.0848675  99.0944498  71.3975332  88.2129179
  99.2676497  71.0588607  89.6782447  92.0287322  73.9874350  81.9543581
  92.8208614  73.6465175  81.5389881  92.2683972  74.0969326  82.8745735
 100.0622449  76.1594127  74.4273826  99.4110428  76.7448207  74.0407839
 100.8566811  76.6900321  74.4868863  93.9878076  73.2483264  74.8260960
  94.7608952  72.7012251  74.6873836  94.3403475  74.1127513  75.0375421
  95.8263118  74.5759646  88.0327859  95.5352984  75.4805277  87.9174526
  96.4620103  74.6176174  88.7471929  96.7519325  71.9536495  84.6229219
  97.3482897  71.7292517  83.9086182  96.8094297  71.2121240  85.2254667
  96.3244354  69.4075930  72.4579410  96.5769874  68.8857451  71.6962873
  95.3868913  69.2442075  72.5606094 101.3687636  68.4111708  80.2654153
 102.1550726  67.9931131  79.9144570 101.6326341  69.3157800  80.4335802
 101.5397714  73.8484559  74.9642810 100.9043547  73.9219185  75.6763715
 101.2095120  74.4378157  74.2861889 106.7696063  68.3486941  81.1687132
 107.5021235  67.7786158  81.4024961 106.0135419  67.9608542  81.6093637
  96.0440642  71.3104036  74.6603785  95.9276900  70.6348939  75.3284869
  96.1542902  70.8236410  73.8435938  98.3872183  70.7714183  78.3650474
  98.0230390  70.2444804  79.0763396  99.2439299  70.3812652  78.1916960
 104.2921484  62.0608516  85.6281740 103.9604809  62.9303926  85.4042955
 103.6967097  61.7444800  86.3075771  98.0277670  65.8004083  73.3611823
  98.1952073  66.6684319  73.7282294  97.8374839  65.9631364  72.4373112
 100.7853003  74.2621062  85.0277653 100.4853726  75.1646100  84.9193460
 100.4404063  73.9953245  85.8798806  94.2365485  70.7134858  81.0614357
  93.3115981  70.5811072  81.2692049  94.4849898  71.4929078  81.5584300
 104.1850147  66.7803602  82.7075090 103.2767024  66.7119010  82.4133851
 104.1337743  67.2575547  83.5356916  98.0066891  68.2561740  74.3458489
  97.8866516  68.7018791  75.1843970  97.3119479  68.6047058  73.7872028
  91.5974296  70.3568132  81.8958147  91.7266677  70.6102611  82.8097558
  90.9171747  70.9495840  81.5762802  95.7673783  81.0265382  77.9948621
  95.6897813  81.9773207  78.0737101  95.1635427  80.6811254  78.6523547
  98.2591013  68.1993247  90.6509988  97.4824347  68.7587167  90.6412852
  98.8981576  68.6850030  91.1724858 106.0511794  64.9820040  84.4852964
 105.4086174  65.2752573  83.8392759 105.5466722  64.8672960  85.2906161
 103.7051957  68.7283213  75.1738824 104.6169813  68.9610600  74.9986521
 103.1961604  69.3120258  74.6113902  96.5137385  71.0078701  90.2127955
  97.2552070  71.5463745  89.9362778  95.8074371  71.6344989  90.3699506
 101.9892725  73.1507841  88.8100116 102.3976081  72.7090252  88.0654748
 101.2669986  72.5760469  89.0634309  98.3423795  68.0880448  86.1833673
  99.1884990  68.5119861  86.3268322  98.2822433  67.4314072  86.8772236
 102.3121540  73.7109032  82.5652405 101.6830402  73.8754746  81.8628473
 101.9247202  74.1250641  83.3363369 106.1910771  74.6463470  79.9196769
 105.5061810  75.0262371  79.3693802 106.2754621  75.2558796  80.6528716
 101.4923240  65.7484816  87.8414847 101.2484172  66.5026877  87.3049122
 101.7683171  66.1270164  88.6762094 103.4461703  72.2923429  86.5192112
 103.6578598  72.9355189  85.8426493 103.3991451  71.4585745  86.0514042
 101.0487932  64.9041249  83.4228684 100.1872411  65.2022503  83.7145422
 101.0750367  65.1211648  82.4909717  97.8649501  73.4483440  79.8302490
  98.3287847  73.7271143  79.0407113  97.6006300  72.5466884  79.6475581
  94.7573582  72.9954921  82.7682253  95.3274940  73.4242190  82.1299738
  95.3481694  72.7137506  83.4666439  96.8018387  69.5706592  76.6392055
  97.5042431  70.0227636  77.1065982  96.4699016  68.9290411  77.2671948
  95.2498749  68.1618349  91.0143265  94.6197410  68.8434630  91.2478661
  95.1434837  68.0501430  90.0696403  90.5443721  67.8290145  81.9409189
  89.7542775  68.0847673  81.4649299  91.0354969  68.6438483  82.0461229
 104.5607531  75.1695384  84.6914470 105.3824975  74.7675571  84.4097151
 104.5569934  75.0663618  85.6430585  92.4958467  68.1934724  78.8992665
  91.6989630  68.3053418  79.4176161  92.2684059  68.5321376  78.0333556
  98.3264134  74.7179427  86.8475180  98.3908567  75.1799835  87.6833352
  97.6175058  74.0876792  86.9757490  88.8281424  68.0820635  84.3724180
  89.0789463  68.9667645  84.6381756  89.3640973  67.9025237  83.5999271
  98.0412152  76.3847535  76.7154160  97.9057827  77.2299071  77.1439008
  98.5821965  76.5866812  75.9520094  94.5279492  62.4639115  93.3768516
  94.1346437  61.9105313  94.0516160  95.3445632  62.7749693  93.7675033
  91.4941549  73.9022973  77.2882086  92.0066070  74.6966223  77.4387650
  92.1464262  73.2049263  77.2215687  93.3036434  77.0188729  79.3704839
  93.4803063  77.9406694  79.1825823  94.0993268  76.7047148  79.7999218
  97.4447453  63.8796994  90.9688772  98.1857166  64.4804147  90.8893235
  97.6765376  63.1374632  90.4106815  92.5888791  69.0653361  89.2467002
  92.4742306  68.1638618  89.5474101  91.7333308  69.3117058  88.8951818
  99.6680628  77.0071101  90.8454503  99.2244483  76.2207480  90.5275407
 100.3297842  77.1950252  90.1798393  94.4267750  78.5366903  85.3715181
  94.9775175  78.4083966  84.5992175  93.5879226  78.8361792  85.0210074
 101.7661867  77.2873901  88.8735904 101.7480342  78.1082782  88.3816173
 102.6881787  77.1627976  89.0986045  98.2234921  74.8018031  89.7159412
  98.7563257  74.0406319  89.4858720  97.6949002  74.5091683  90.4583567
 101.3904616  59.9078097  85.2453054 101.0468885  60.7979738  85.1692164
 101.7583578  59.7179754  84.3822639  89.4590466  72.2311627  78.0641656
  90.2965688  72.6408636  77.8475364  89.6368734  71.2911069  78.0341850
 101.3554898  69.8986708  73.7525489 100.8401522  70.6691312  73.9913876
 101.0832207  69.2251844  74.3758550  98.9402009  64.7436409  78.8110727
  98.0843606  64.3543259  78.6316366  99.3528961  64.8228369  77.9510513
 100.4701156  62.2782752  83.2102287  99.9665952  62.2412887  82.3970092
 100.7631763  63.1875495  83.2698944  96.7144042  62.3621482  82.2168469
  97.5797039  62.1664290  81.8574358  96.7821551  62.1331833  83.1437826
 106.3289173  72.6519062  75.6878662 105.5518615  72.3130222  75.2433825
 107.0080653  72.6571686  75.0133628 101.1441202  67.7713800  75.5785270
 100.8391337  68.0859949  76.4295413 102.0971644  67.8495220  75.6212603
  99.5887633  73.9304023  77.2278224  99.0608995  73.1956783  76.9151462
  99.0875136  74.7078700  76.9818193 104.5680479  72.1253044  82.3445270
 103.9104154  72.8152305  82.4325399 105.3720879  72.5149476  82.6879257
  94.3206361  64.5923690  79.5884836  94.8950113  64.3698871  78.8558029
  94.9077343  64.6612384  80.3413437 103.3785938  70.4797416  80.3949212
 103.8917820  71.1127408  80.8970922 104.0287162  69.8798612  80.0292572
  94.6475948  66.6228151  73.6080721  93.8113260  66.9602837  73.9289996
  94.5080718  66.4877130  72.6707858  97.7340234  71.7484233  70.2313197
  96.8267295  71.5173487  70.4304346  98.2311266  70.9521853  70.4187179
 100.6408312  80.4581741  73.1509883  99.9670011  80.7613437  73.7594841
 101.0274134  81.2610821  72.8015340  99.8566769  67.9546872  82.6407553
  98.9389330  68.1761819  82.4829241 100.2726913  68.0293182  81.7819260
 100.6401817  69.3538288  77.7710233 101.3873636  69.8659685  77.4617355
 100.9093406  69.0322340  78.6314627  98.9128467  71.8496828  74.7537187
  98.0039686  71.5655861  74.8509657  98.9423551  72.2695907  73.8940494
 104.1447734  75.4603418  78.5228355 103.6910062  74.6194328  78.5793545
 103.5141701  76.0964816  78.8603135 103.0880654  66.3895404  79.7529022
 102.3503411  65.8772790  80.0839265 103.3407428  65.9495785  78.9412299
 102.5880674  77.2979915  79.4578173 102.8803648  77.8584972  78.7390539
 103.0979294  77.5908476  80.2131332 103.1892281  59.1671656  80.3470792
 103.4951158  58.3069019  80.0596707 103.9144886  59.7589276  80.1469785
  89.4816637  69.5702342  78.7352390  89.2841037  68.9771703  78.0103456
  88.9263301  69.2654553  79.4528328  97.4613361  69.4625449  80.8546983
  97.5161971  68.5099285  80.7789459  96.6504563  69.6184888  81.3388281
  98.6104555  73.3905572  72.0925266  98.1723985  72.6741431  71.6330903
  99.3514996  73.6181687  71.5310357  95.4005721  68.0802509  78.6137362
  94.5873587  68.3796679  79.0202554  95.8964715  67.6858197  79.3311844
  97.5514299  78.0760266  80.5471626  97.5090478  78.3021112  79.6180158
  98.4676998  77.8423640  80.6957427 100.9979933  68.5444333  87.4452255
 101.3529320  68.7715806  88.3046721 101.6452064  68.8762710  86.8229511
 106.7277670  71.6662769  78.1501584 106.5895568  71.8564365  77.2222774
 106.3713888  72.4282152  78.6069636  94.8919796  65.6520864  84.2298596
  95.5319175  65.5109623  83.5321560  94.0597326  65.3655378  83.8537198
 106.7547049  73.7339296  83.1612856 107.1883556  73.6414585  84.0095910
 107.4678630  73.7096797  82.5232872  95.6680100  74.9523295  80.3433589
  96.4620698  74.4573615  80.1416164  94.9571792  74.4241158  79.9801294
 100.4874944  77.3341390  84.6945957 100.5411966  77.9032326  85.4623672
  99.6189725  77.5043275  84.3299994  91.9762863  69.0966376  76.4193342
  91.0460451  69.0350832  76.6363304  92.0720335  68.5742329  75.6229983
  91.8948412  65.6221189  79.0071583  92.1555229  66.5366522  78.8980744
  92.7165584  65.1545632  79.1568196  93.3673337  67.0358946  86.1770408
  94.0396391  66.8276309  85.5283057  92.5403124  66.8381032  85.7375640
 107.6162599  73.7762997  85.6945741 107.8098489  74.6808807  85.9405016
 107.5163217  73.3170416  86.5284326  99.2698909  63.6620887  88.1936069
  98.6226825  64.3610837  88.1000545 100.0399925  64.0957031  88.5612317
 102.6777707  73.9269739  91.2686622 102.5263214  73.6980291  90.3516706
 102.6682387  74.8840341  91.2817967  99.4463044  71.5001652  86.2532888
 100.3755104  71.6512812  86.0801856  99.0254074  71.5885673  85.3981535
  98.2451376  75.5252317  84.0231426  98.1062461  75.1571101  84.8957364
  97.4565972  76.0399956  83.8515384  98.8399528  80.6261413  75.3656963
  99.0151283  80.1549456  76.1802585  98.1532316  81.2527179  75.5938223
  99.7956591  74.9033919  81.4120264  99.4606423  74.8634689  82.3077914
  99.2960536  74.2378635  80.9390674  93.7700835  70.3101549  86.9372845
  93.6320633  69.5781788  87.5384384  94.6805758  70.2210449  86.6557033
 102.7315782  72.2489954  71.6857323 102.1144953  71.5236782  71.5890376
 102.2632271  73.0099314  71.3424398  96.3983135  70.0221509  86.4256525
  97.1082754  69.3814701  86.3843143  96.3552444  70.2734404  87.3482705
 104.3869914  76.9588862  89.3463104 104.3282460  76.2748082  88.6793687
 104.7889432  77.7007852  88.8943730  95.1112069  67.0086727  88.2452164
  94.5749426  66.5577465  88.8973760  94.5228778  67.1432635  87.5022628
  93.4060613  83.7750776  82.1396823  93.6457211  84.4069300  82.8175841
  92.5629809  83.4238816  82.4262182  94.5214328  66.4675378  70.8078628
  93.6443795  66.3464179  70.4440874  94.9972081  65.6761456  70.5557516
 104.3887321  74.9228446  87.5777083 103.5014100  74.5854368  87.7003482
 104.9585872  74.1911477  87.8145849  86.0416468  71.2552538  80.9020135
  86.7287508  70.9414268  80.3141150  85.8864597  72.1593902  80.6287386
  90.8451191  66.1442734  85.3305159  90.7609379  65.5368404  84.5955569
  90.0233897  66.6351753  85.3314655  97.9188475  79.5829898  84.5438327
  97.8458646  80.3884870  85.0557631  97.4765868  79.7821864  83.7186348
  97.7078254  78.8201668  78.0541148  96.9245776  79.3623349  78.1479373
  98.4071000  79.3375648  78.4535389 101.0174904  64.6296298  80.6975354
 101.5143604  63.8766260  80.3776424 100.2461886  64.6660614  80.1318563
 108.8704662  70.3336663  82.3393645 108.8594538  71.2161379  81.9687578
 108.0022041  69.9808214  82.1448182 100.3787158  79.4816732  86.6996485
 101.0915130  80.1164197  86.6272387  99.8877187  79.5780598  85.8836487
 102.1004685  73.3867985  78.2713777 101.1660964  73.5069447  78.1018481
 102.2781354  72.4840452  78.0073787  97.6009873  66.7713681  80.4247038
  97.2307661  66.2184721  81.1127944  98.0968966  66.1671814  79.8722038
 105.4877237  69.2285304  78.8063811 105.9537689  70.0613296  78.7324114
 105.9384737  68.7630286  79.5109070  95.4299072  77.2311176  87.5202056
  96.1308531  77.8647659  87.6731450  94.9594187  77.5725907  86.7597695
 103.5553468  75.5729126  75.8049963 103.8313312  75.4585720  76.7143837
 102.6857966  75.1746610  75.7662136 103.4593899  61.5965891  82.8454712
 102.5456979  61.8270118  83.0136919 103.8887001  61.6804335  83.6968745
 103.2300358  69.7855783  85.3454607 102.5771808  70.0331691  84.6907059
 103.6080738  68.9719921  85.0117084 100.1907532  79.8215476  79.4482777
 100.3729926  79.0037132  79.9110529 101.0140518  80.0383169  79.0107667
 100.5249697  78.7483662  76.7097825 101.0537464  78.2376116  76.0967987
 100.7877917  78.4326192  77.5743358  99.2787931  70.5275594  91.8320644
  98.6028568  70.4269724  92.5023019 100.1015565  70.3714808  92.2956641
  91.0266790  76.7647531  84.4533159  91.6120227  76.0191219  84.5861063
  90.8291628  77.0751488  85.3369823  93.8805445  79.7998778  79.4695601
  93.2115820  80.2844906  78.9859641  93.7418315  80.0467999  80.3838980
  85.6184445  69.3353131  83.1737602  85.6568544  68.8016722  83.9674720
  85.1124737  68.8088337  82.5548579  98.0210714  81.8342522  86.0678260
  98.5729022  81.9974143  86.8327345  98.3616907  82.4246960  85.3958284
  92.9975207  64.1817672  86.6700144  93.0616533  65.0432502  86.2577542
  92.9342327  63.5691673  85.9372503  92.4727479  66.2540804  90.3173179
  93.0999518  65.8717881  90.9310703  91.6155398  66.0355006  90.6828871
  89.2493022  68.0617233  76.2491533  89.5446463  67.1527912  76.1958587
  88.3481058  68.0404973  75.9272536 101.1579101  79.7824497  83.0541942
 101.0330240  78.9814237  82.5452887 101.8158192  80.2770691  82.5655912
  92.7787269  66.1373230  82.2319082  92.0573855  66.7509198  82.0926555
  93.5680525  66.6730995  82.1535728 103.2214009  77.5833517  84.6821492
 102.2744345  77.4638869  84.6099819 103.5696782  76.6956015  84.7647753
  95.5813583  63.4727656  88.5059734  96.1047985  63.7189953  89.2686043
  95.3625916  64.3047691  88.0862871  90.9780864  65.7431331  76.3730859
  90.6493570  64.8628710  76.1905964  91.3320234  65.6879000  77.2607248
 100.2260443  77.3786234  80.8825844 100.0785405  76.4502941  81.0633414
 101.0513936  77.4006324  80.3982919  94.0922687  66.0304301  76.7406336
  94.4318759  66.5590222  76.0184945  94.5394807  66.3684707  77.5164903
 103.8294564  78.2014792  81.9690717 104.7541112  77.9957654  81.8315168
 103.6609868  77.9531193  82.8780058  96.7866128  64.4141351  86.1909404
  96.4462948  63.6149164  86.5930084  96.0805134  64.7143062  85.6186237
  97.4382600  61.4990664  84.6436727  98.2608669  61.0251142  84.5215618
  97.6820663  62.2781148  85.1435414  96.0790834  64.5278922  74.9399629
  96.7999197  64.9060175  74.4363346  95.4556138  65.2467799  75.0434607
 100.2221957  65.2324071  75.8757961 100.4385571  66.1148709  75.5746789
  99.7416024  64.8410285  75.1463603  94.9621178  68.1909784  82.4528706
  94.8165759  68.5050088  83.3452987  94.4846382  68.8094685  81.8999605
  96.8217561  65.1812332  82.5009595  96.8079130  64.2853426  82.1641893
  97.5389989  65.1882996  83.1347882  98.6743692  65.6149673  84.5462723
  98.4161470  66.5366743  84.5447053  98.1428732  65.2180107  85.2363187
 103.6189881  78.7200460  77.3252808 103.7926758  78.1546882  76.5726661
 104.1118772  79.5201355  77.1432298  89.4366840  70.7315129  85.3916367
  88.8920309  71.5074937  85.5236641  90.3146190  71.0785933  85.2335489
  96.2254457  64.0626713  77.7697166  96.3470368  63.1343359  77.9688053
  95.9356500  64.0765399  76.8575481  99.0945648  61.7481623  80.9063885
  99.1167344  61.8120956  79.9515865  99.5113707  60.9086132  81.1004392
 109.4729272  71.4836883  78.9443108 109.9160418  70.7344208  78.5462231
 108.5955782  71.4747019  78.5616840 104.6065053  78.0367224  74.4249707
 105.3015958  78.6573917  74.6437021 104.9488203  77.1862575  74.7002084
  90.2232862  69.8585025  88.2846524  89.4814598  70.0067660  88.8711154
  89.9025607  70.1193291  87.4213273 106.5056476  75.4866930  75.9537037
 107.0307800  75.8254202  75.2286357 106.4178829  74.5513945  75.7700172
  98.1676525  79.4001003  88.0826914  98.4763651  79.1550150  88.9549614
  98.9652007  79.6047642  87.5945784  98.1897137  81.5538913  80.3132291
  97.7502127  81.0615292  81.0065147  98.9405254  81.0111881  80.0724366
  90.6689476  77.7450454  80.3156919  91.4947496  77.4454226  79.9355562
  90.3183528  76.9758076  80.7646707  95.6371009  77.0976922  82.3854592
  95.0151018  76.4347627  82.0856820  96.3075876  77.1238054  81.7028240
  88.8698081  75.6636780  81.2745852  88.0329989  75.2358955  81.0929853
  88.8421726  75.8569224  82.2116643  95.7095537  65.5758710  91.9787098
  95.7583692  66.4520833  91.5964868  96.2518051  65.0336103  91.4058741
 106.3148257  72.9692300  88.5720964 106.3646262  72.8042307  89.5136487
 106.2062181  72.1019559  88.1818845  95.1984516  75.6480845  75.8613053
  95.3472636  76.3316310  75.2079725  96.0050960  75.6285935  76.3762508
 103.6052020  68.9523228  89.8880271 104.5061883  68.8129693  89.5964268
 103.6799994  69.1177683  90.8278448  97.9394825  66.3290083  88.7333457
  97.0698135  66.6223649  88.4616045  98.1754305  66.9130528  89.4540720
 107.8166454  75.3889241  88.8162985 107.5251263  75.7519222  89.6526446
 107.2038586  74.6756250  88.6376317 109.0162137  72.9542121  81.3365556
 109.8509028  73.3931925  81.5003116 109.1521265  72.4780774  80.5173801
 106.0653642  70.5121856  87.2843043 106.5407764  70.7049502  86.4761895
 105.1419208  70.5681042  87.0386427  92.9537149  71.6746023  76.8674122
  92.7083191  70.7708353  77.0654332  93.1233064  71.6763173  75.9253600
 100.6433859  62.5469699  86.2498877 101.1615803  63.2830726  85.9245366
 100.2888992  62.8533693  87.0845636  92.2232797  67.4074381  74.3660283
  91.5302042  67.4818736  73.7100319  91.9784549  66.6434724  74.8881800
 100.8946453  58.9669982  81.7699774 101.1748207  58.2993171  82.3960200
 101.6797060  59.1599078  81.2574438  98.6979922  78.1428976  73.3324800
  98.1253889  78.7619163  72.8795272  99.2712715  78.6928338  73.8664722
 104.7655311  67.3887616  85.5171349 105.7172734  67.4885714  85.5383573
 104.5958762  66.5965885  86.0269433 102.7869691  64.4743199  85.7030750
 102.1919623  64.7548212  85.0077239 102.5019388  64.9637100  86.4747491
 101.9177181  78.4266126  74.4633382 102.8507855  78.3611688  74.6666258
 101.8300394  79.2622393  74.0047915 104.5465198  77.7431996  71.4237330
 104.4678830  77.4091860  72.3173088 105.3674865  78.2353764  71.4228802
 107.2443389  70.6093736  84.6313649 107.2119709  69.6709736  84.8173332
 107.8544013  70.6877772  83.8979473  99.0826720  69.4789789  70.6740853
 100.0285825  69.3495997  70.7429271  98.7040965  68.7404451  71.1510281
 107.3937878  67.4004779  84.6771932 106.8776926  66.6163236  84.4901861
 108.2777826  67.0723496  84.8418451 105.0548605  61.1445795  80.6367744
 104.8573426  60.8360883  81.5211076 105.6648310  61.8707434  80.7665674
  98.9665413  73.5307535  92.1341510  99.8868422  73.7086134  92.3281556
  98.9314996  72.5863580  91.9821209  97.2669637  67.4039765  70.6095738
  96.3601093  67.1072878  70.6858451  97.5445618  67.1069583  69.7430024
  88.1847578  68.7246128  81.0594784  87.8650362  67.8711437  80.7669158
  87.6381006  68.9394707  81.8152752  91.9627485  71.4408569  84.7764291
  92.1813495  72.3725677  84.7952325  92.3753259  71.0816544  85.5619095
  98.8831703  61.9476655  76.7639979  98.0732431  61.6023740  77.1395225
  99.5716120  61.6384198  77.3527591 100.8122251  61.0254702  78.3864276
 101.3653290  61.4450155  79.0454299 101.0492338  60.0990450  78.4287232
  96.8355351  67.0141775  94.1667040  96.7352077  67.9636132  94.0979131
  96.6176893  66.6860014  93.2943110  96.0368422  64.2626700  70.7507717
  96.8987586  64.5881599  71.0103534  96.2218766  63.4758196  70.2380783
  88.0535838  72.3449040  83.0287906  87.3599309  71.9302993  82.5157860
  88.8008829  72.3869576  82.4321325 104.1901058  63.1355227  77.8942940
 103.6099727  63.7940031  77.5120992 103.9236991  62.3132571  77.4830358
 102.6404625  62.5360284  80.0964260 103.1404403  62.6476819  79.2878579
 103.2840233  62.2321337  80.7365069  96.6986621  70.4438914  92.9832101
  96.2153702  71.2439274  93.1895990  96.7847560  70.4546859  92.0299545
  89.9672580  72.2767294  80.9053921  89.9443268  72.3754981  79.9535804
  90.2773217  73.1232444  81.2271087  92.6259958  74.3343449  85.0200535
  93.5803212  74.3027391  84.9530467  92.4272482  73.8734072  85.8350761
  93.2159340  72.9044565  87.5871333  94.0352229  73.3988643  87.6106170
  93.4896148  71.9876533  87.5588900 102.9725936  65.2955317  76.9499288
 102.0851791  65.5804968  76.7319483 103.3879925  65.1349080  76.1026565
 106.3240473  65.3201838  80.6653628 107.1000863  65.8098290  80.9378244
 105.5988607  65.7459892  81.1225497 108.7613031  66.0329457  81.7227568
 109.3557522  65.7925193  81.0120876 108.8339615  65.3136588  82.3501104
  90.9810187  79.8763068  82.0370733  90.8464655  79.1163469  81.4708731
  90.5642249  80.6003968  81.5699522 102.1169150  75.0599992  71.0447308
 102.8205000  75.2649994  71.6604964 101.3931799  75.6276754  71.3096392
 102.9466960  70.8109853  77.1649578 102.8902162  71.2678404  76.3257211
 103.4995303  70.0500538  76.9872421 106.7571766  66.5999585  77.9899698
 106.5008700  66.1996221  78.8207906 106.1324634  67.3143379  77.8649837
  94.1379313  80.7732385  82.2489176  94.0211697  81.7177818  82.1467866
  93.3171759  80.4705947  82.6374975 104.0255847  75.4982521  73.0945768
 104.8601451  75.0663719  72.9123243 103.8640190  75.3264535  74.0222663
 103.6801739  72.0014634  74.4602108 103.6250543  71.8358906  73.5190552
 103.0547795  72.7090667  74.6164297  88.4694254  67.2382699  88.2863530
  89.1153118  66.7281653  88.7750755  88.2611406  67.9751380  88.8606955
  96.9897865  61.5022743  74.0387426  96.9776535  62.4464583  74.1955697
  97.8821287  61.3192889  73.7446887  95.1633827  81.4260647  85.4645104
  96.0661074  81.4584257  85.7811599  94.9371197  80.4961098  85.4791440
  96.9187429  80.1791634  82.1255183  95.9683060  80.1793495  82.0119555
  97.2219915  79.4324368  81.6091217 100.8049984  58.0965520  78.2933363
 100.0382380  57.5424007  78.4390045 101.2160689  58.1687389  79.1547514
  92.8091745  64.3850316  92.3838544  93.6723207  64.0287121  92.5941869
  92.2357156  64.0464211  93.0713948 105.3216644  87.8215077  79.1159361
 104.7581509  87.7305014  78.3475649 105.2069039  87.0014981  79.5961853
 102.8681076  89.3166268  81.9543581 103.6602368  88.9757093  81.5389881
 103.1077726  89.4261243  82.8745735 104.8271830  88.5775181  74.8260960
 105.6002706  88.0304169  74.6873836 105.1797229  89.4419431  75.0375421
 107.1638108  84.7367848  72.4579410 107.4163629  84.2149369  71.6962873
 106.2262667  84.5733993  72.5606094 106.8834397  86.6395953  74.6603785
 106.7670655  85.9640857  75.3284869 106.9936657  86.1528327  73.8435938
 109.2265938  86.1006101  78.3650474 108.8624145  85.5736722  79.0763396
 110.0833054  85.7104570  78.1916960 108.8671425  81.1296000  73.3611823
 109.0345827  81.9976237  73.7282294 108.6768594  81.2923282  72.4373112
 105.0759239  86.0426776  81.0614357 104.1509736  85.9102990  81.2692049
 105.3243653  86.8220995  81.5584300 108.8460646  83.5853658  74.3458489
 108.7260271  84.0310709  75.1843970 108.1513234  83.9338975  73.7872028
 102.4368050  85.6860050  81.8958147 102.5660432  85.9394529  82.8097558
 101.7565502  86.2787758  81.5762802 108.7043256  88.7775358  79.8302490
 109.1681601  89.0563060  79.0407113 108.4400054  87.8758802  79.6475581
 107.6412142  84.8998510  76.6392055 108.3436185  85.3519554  77.1065982
 107.3092770  84.2582329  77.2671948 101.3837476  83.1582063  81.9409189
 100.5936530  83.4139591  81.4649299 101.8748723  83.9730400  82.0461229
 103.3352221  83.5226642  78.8992665 102.5383385  83.6345336  79.4176161
 103.1077813  83.8613294  78.0333556  99.6675179  83.4112553  84.3724180
  99.9183217  84.2959563  84.6381756 100.2034727  83.2317155  83.5999271
 108.8805907  91.7139453  76.7154160 108.7451581  92.5590988  77.1439008
 109.4215719  91.9158730  75.9520094 102.3335304  89.2314891  77.2882086
 102.8459825  90.0258141  77.4387650 102.9858017  88.5341181  77.2215687
 104.1430189  92.3480647  79.3704839 104.3196817  93.2698612  79.1825823
 104.9387022  92.0339066  79.7999218 100.2984221  87.5603545  78.0641656
 101.1359443  87.9700553  77.8475364 100.4762488  86.6202987  78.0341850
 109.7795764  80.0728326  78.8110727 108.9237360  79.6835177  78.6316366
 110.1922716  80.1520287  77.9510513 107.5537796  77.6913399  82.2168469
 108.4190793  77.4956208  81.8574358 107.6215305  77.4623751  83.1437826
 110.4281388  89.2595941  77.2278224 109.9002749  88.5248700  76.9151462
 109.9268891  90.0370617  76.9818193 105.1600115  79.9215607  79.5884836
 105.7343867  79.6990789  78.8558029 105.7471098  79.9904302  80.3413437
 105.4869703  81.9520068  73.6080721 104.6507015  82.2894755  73.9289996
 105.3474472  81.8169048  72.6707858 107.4622783  76.7956856  78.3159905
 106.8087196  76.4805873  77.6916520 107.4203257  76.1732597  79.0419728
 108.5733988  87.0776151  70.2313197 107.6661050  86.8465405  70.4304346
 109.0705020  86.2813770  70.4187179 109.7522221  87.1788746  74.7537187
 108.8433441  86.8947779  74.8509657 109.7817305  87.5987825  73.8940494
 100.3210392  84.8994260  78.7352390 100.1234792  84.3063621  78.0103456
  99.7657056  84.5946470  79.4528328 108.3007116  84.7917367  80.8546983
 108.3555725  83.8391203  80.7789459 107.4898318  84.9476806  81.3388281
 109.4498309  88.7197490  72.0925266 109.0117739  88.0033349  71.6330903
 110.1908750  88.9473605  71.5310357 106.2399475  83.4094426  78.6137362
 105.4267341  83.7088597  79.0202554 106.7358470  83.0150115  79.3311844
 105.7313550  80.9812782  84.2298596 106.3712930  80.8401541  83.5321560
 104.8991081  80.6947295  83.8537198 106.5073854  90.2815212  80.3433589
 107.3014453  89.7865532  80.1416164 105.7965547  89.7533075  79.9801294
 102.8156618  84.4258294  76.4193342 101.8854206  84.3642750  76.6363304
 102.9114090  83.9034247  75.6229983 102.7342167  80.9513107  79.0071583
 102.9948984  81.8658440  78.8980744 103.5559339  80.4837549  79.1568196
 104.2067092  82.3650864  86.1770408 104.8790145  82.1568226  85.5283057
 103.3796878  82.1672950  85.7375640 105.3608083  81.7967296  70.8078628
 104.4837549  81.6756096  70.4440874 105.8365836  81.0053374  70.5557516
  96.8810223  86.5844455  80.9020135  97.5681263  86.2706185  80.3141150
  96.7258352  87.4885820  80.6287386 101.6844945  81.4734652  85.3305159
 101.6003134  80.8660321  84.5955569 100.8627652  81.9643670  85.3314655
 108.4403628  82.1005598  80.4247038 108.0701415  81.5476639  81.1127944
 108.9362720  81.4963732  79.8722038  96.4578199  84.6645049  83.1737602
  96.4962299  84.1308639  83.9674720  95.9518492  84.1380254  82.5548579
 103.8368961  79.5109589  86.6700144 103.9010288  80.3724420  86.2577542
 103.7736082  78.8983591  85.9372503 100.0886777  83.3909151  76.2491533
 100.3840218  82.4819829  76.1958587  99.1874812  83.3696890  75.9272536
 103.6181024  81.4665147  82.2319082 102.8967609  82.0801115  82.0926555
 104.4074279  82.0022912  82.1535728 101.8174618  81.0723249  76.3730859
 101.4887324  80.1920627  76.1905964 102.1713989  81.0170917  77.2607248
 104.9316441  81.3596218  76.7406336 105.2712514  81.8882140  76.0184945
 105.3788562  81.6976624  77.5164903 107.6259882  79.7433269  86.1909404
 107.2856703  78.9441082  86.5930084 106.9198889  80.0434980  85.6186237
 108.2776354  76.8282581  84.6436727 109.1002423  76.3543060  84.5215618
 108.5214418  77.6073065  85.1435414 106.9184589  79.8570840  74.9399629
 107.6392951  80.2352093  74.4363346 106.2949893  80.5759717  75.0434607
 105.8014933  83.5201702  82.4528706 105.6559514  83.8342005  83.3452987
 105.3240136  84.1386602  81.8999605 107.6611316  80.5104250  82.5009595
 107.6472884  79.6145343  82.1641893 108.3783744  80.5174914  83.1347882
 109.5137446  80.9441590  84.5462723 109.2555224  81.8658661  84.5447053
 108.9822487  80.5472025  85.2363187 100.2760595  86.0607047  85.3916367
  99.7314063  86.8366854  85.5236641 101.1539945  86.4077851  85.2335489
 107.0648212  79.3918630  77.7697166 107.1864123  78.4635277  77.9688053
 106.7750254  79.4057316  76.8575481 109.9339402  77.0773541  80.9063885
 109.9561099  77.1412874  79.9515865 110.3507461  76.2378049  81.1004392
 101.5083231  93.0742372  80.3156919 102.3341250  92.7746143  79.9355562
 101.1577283  92.3049994  80.7646707  99.7091836  90.9928698  81.2745852
  98.8723744  90.5650872  81.0929853  99.6815481  91.1861141  82.2116643
 106.0378271  90.9772763  75.8613053 106.1866391  91.6608227  75.2079725
 106.8444714  90.9577853  76.3762508 103.7930904  87.0037941  76.8674122
 103.5476946  86.1000271  77.0654332 103.9626818  87.0055091  75.9253600
 103.0626551  82.7366298  74.3660283 102.3695796  82.8110653  73.7100319
 102.8178303  81.9726642  74.8881800 109.5373676  93.4720894  73.3324800
 108.9647643  94.0911081  72.8795272 110.1106470  94.0220255  73.8664722
 108.1063392  82.7331683  70.6095738 107.1994847  82.4364795  70.6858451
 108.3839373  82.4361501  69.7430024  99.0241332  84.0538046  81.0594784
  98.7044116  83.2003354  80.7669158  98.4774760  84.2686624  81.8152752
 109.7225457  77.2768572  76.7639979 108.9126186  76.9315657  77.1395225
 110.4109874  76.9676116  77.3527591 106.8762176  79.5918618  70.7507717
 107.7381340  79.9173516  71.0103534 107.0612521  78.8050114  70.2380783
  98.8929592  87.6740958  83.0287906  98.1993064  87.2594910  82.5157860
  99.6402583  87.7161494  82.4321325 100.8066335  87.6059211  80.9053921
 100.7837023  87.7046899  79.9535804 101.1166971  88.4524362  81.2271087
 107.8291619  76.8314661  74.0387426 107.8170289  77.7756501  74.1955697
 108.7215041  76.6484806  73.7446887  52.4098766  -3.2840166  64.7193927
  52.3322796  -2.3332341  64.7982408  51.8060410  -3.6294294  65.3768854
  50.0485596  -0.5354772  68.8642129  50.2882194   0.0963752  69.5421148
  49.2054793  -0.8866732  69.1507489  50.5230428  -4.5106770  66.1940908
  49.8540804  -4.0260642  65.7104948  50.3843298  -4.2637549  67.1084286
  54.6635697  -2.4763026  72.7923566  55.2154005  -2.3131405  73.5572651
  55.0041890  -1.8858589  72.1203591  47.6235170  -4.4342480  68.7616040
  47.4889638  -5.1942079  68.1954038  47.2067232  -3.7101580  68.2944829
  50.7804296  -3.5373163  68.9734482  50.6636680  -2.5927730  68.8713173
  49.9596742  -3.8399601  69.3620282  51.8058810  -2.8844901  72.1890411
  52.7086057  -2.8521291  72.5056906  51.5796180  -3.8144450  72.2036747
  66.1054812   1.6574052  69.8507776  65.7673323   1.5415117  68.9628311
  66.9744580   1.2565217  69.8308783  61.9641628   3.5109528  65.8404667
  61.4006493   3.4199465  65.0720955  61.8494023   2.6909433  66.3207160
  66.5874595   2.8108904  75.8093982  66.5763236   2.4161702  74.9374486
  66.7495234   2.0774976  76.4027753  59.5106060   5.0060720  68.6788888
  60.3027351   4.6651545  68.2635187  59.7502710   5.1155695  69.5991041
  67.5441186   7.1780496  61.1519132  66.8929166   7.7634577  60.7653146
  68.3385549   7.7086691  61.2114170  61.4696813   4.2669633  61.5506267
  62.2427690   3.7198620  61.4119142  61.8222212   5.1313883  61.7620728
  63.3081856   5.5946016  74.7573166  63.0171722   6.4991646  74.6419832
  63.9438840   5.6362543  75.4717236  64.2338063   2.9722864  71.3474526
  64.8301635   2.7478886  70.6331489  64.2913034   2.2307610  71.9499973
  69.0216451   4.8670928  61.6888117  68.3862284   4.9405555  62.4009021
  68.6913858   5.4564527  61.0107196  63.5259380   2.3290405  61.3849092
  63.4095638   1.6535309  62.0530176  63.6361640   1.8422779  60.5681245
  65.8690921   1.7900552  65.0895781  65.5049128   1.2631173  65.8008702
  66.7258037   1.3999022  64.9162266  68.2671741   5.2807431  71.7522960
  67.9672464   6.1832470  71.6438767  67.9222801   5.0139614  72.6044113
  61.7184223   1.7321228  67.7859664  60.7934719   1.5997442  67.9937356
  61.9668636   2.5115447  68.2829606  59.0793034   1.3754501  68.6203453
  59.2085415   1.6288980  69.5342865  58.3990485   1.9682209  68.3008108
  63.2492521  12.0451751  64.7193927  63.1716551  12.9959577  64.7982408
  62.6454165  11.6997624  65.3768854  63.9956123   2.0265070  76.9373261
  64.7370807   2.5650114  76.6608085  63.2893108   2.6531359  77.0944813
  69.4711463   4.1694211  75.5345423  69.8794819   3.7276621  74.7900055
  68.7488724   3.5946838  75.7879616  69.7940277   4.7295401  69.2897712
  69.1649140   4.8941115  68.5873779  69.4065939   5.1437011  70.0608676
  73.6729509   5.6649839  66.6442075  72.9880547   6.0448741  66.0939109
  73.7573359   6.2745166  67.3774023  65.3468239   4.4669809  66.5547797
  65.8106585   4.7457512  65.7652419  65.0825037   3.5653254  66.3720887
  62.2392320   4.0141291  69.4927560  62.8093677   4.4428559  68.8545044
  62.8300432   3.7323876  70.1911746  58.0262459  -1.1523486  68.6654495
  57.2361513  -0.8965957  68.1894606  58.5173707  -0.3375148  68.7706536
  72.0426269   6.1881754  71.4159776  72.8643712   5.7861941  71.1342458
  72.0388672   6.0849988  72.3675892  59.9777205  -0.7878906  65.6237972
  59.1808368  -0.6760212  66.1421468  59.7502797  -0.4492254  64.7578863
  65.8082872   5.7365797  73.5720487  65.8727305   6.1986204  74.4078659
  65.0993796   5.1063162  73.7002797  56.3100162  -0.8992995  71.0969486
  56.5608201  -0.0145985  71.3627062  56.8459711  -1.0788394  70.3244578
  65.5230890   7.4033904  63.4399467  65.3876565   8.2485440  63.8684315
  66.0640702   7.6053182  62.6765401  58.9760287   4.9209342  64.0127392
  59.4884808   5.7152593  64.1632957  59.6283000   4.2235633  63.9460994
  60.7855172   8.0375099  66.0950145  60.9621800   8.9593063  65.9071129
  61.5812005   7.7233518  66.5244525  60.0707529   0.0839731  75.9712309
  59.9561044  -0.8175012  76.2719407  59.2152046   0.3303427  75.6197125
  67.1499366   8.0257471  77.5699809  66.7063220   7.2393849  77.2520714
  67.8116580   8.2136621  76.9043700  61.9086487   9.5553272  72.0960488
  62.4593913   9.4270336  71.3237482  61.0697963   9.8548162  71.7455380
  69.2480604   8.3060271  75.5981210  69.2299080   9.1269152  75.1061480
  70.1700524   8.1814346  75.8231352  65.7053658   5.8204400  76.4404719
  66.2381995   5.0592688  76.2104027  65.1767740   5.5278052  77.1828873
  56.9409204   3.2497997  64.7886963  57.7784426   3.6595005  64.5720670
  57.1187472   2.3097439  64.7587157  67.0706371   4.9490393  63.9523531
  66.5427733   4.2143152  63.6396768  66.5693874   5.7265069  63.7063499
  72.0499217   3.1439413  69.0690577  71.3922892   3.8338675  69.1570706
  72.8539616   3.5335845  69.4124563  65.2158971   2.7670603  56.9558504
  64.3086033   2.5359857  57.1549653  65.7130003   1.9708222  57.1432485
  68.1227050  11.4768110  59.8755190  67.4488749  11.7799807  60.4840148
  68.5092872  12.2797191  59.5260647  66.3947205   2.8683198  61.4782494
  65.4858424   2.5842231  61.5754964  66.4242289   3.2882276  60.6185801
  71.6266472   6.4789787  65.2473662  71.1728799   5.6380697  65.3038852
  70.9960439   7.1151186  65.5848442  70.0699411   8.3166284  66.1823480
  70.3622386   8.8771341  65.4635845  70.5798032   8.6094845  66.9376639
  56.9635375   0.5888712  65.4597696  56.7659775  -0.0041927  64.7348763
  56.4082039   0.2840922  66.1773635  66.0923293   4.4091942  58.8170573
  65.6542723   3.6927801  58.3576210  66.8333733   4.6368056  58.2555664
  65.0333037   9.0946635  67.2716933  64.9909215   9.3207482  66.3425465
  65.9495736   8.8610010  67.4202734  74.2365787   4.7525666  69.8858163
  74.6702294   4.6600955  70.7341217  74.9497368   4.7283166  69.2478179
  63.1498837   5.9709664  67.0678896  63.9439436   5.4759984  66.8661471
  62.4390530   5.4427527  66.7046601  67.9693682   8.3527760  71.4191263
  68.0230704   8.9218696  72.1868979  67.1008463   8.5229645  71.0545300
  59.4581601   0.1152746  63.1438648  58.5279189   0.0537201  63.3608610
  59.5539073  -0.4071301  62.3475290  75.0981337   4.7949366  72.4191048
  75.2917227   5.6995177  72.6650323  74.9981955   4.3356785  73.2529633
  70.1596445   4.9456109  77.9931929  70.0081952   4.7166661  77.0762012
  70.1501125   5.9026710  78.0063274  66.9281782   2.5188022  72.9778195
  67.8573842   2.6699181  72.8047162  66.5072812   2.6072043  72.1226842
  65.7270113   6.5438686  70.7476733  65.5881199   6.1757471  71.6202671
  64.9384710   7.0586326  70.5760690  66.3218265  11.6447783  62.0902269
  66.4970021  11.1735826  62.9047892  65.6351053  12.2713549  62.3183530
  67.2775329   5.9220289  68.1365570  66.9425161   5.8821059  69.0323220
  66.7779274   5.2565005  67.6635981  61.2519573   1.3287919  73.6618152
  61.1139370   0.5968158  74.2629691  62.1624496   1.2396819  73.3802339
  70.2134520   3.2676323  58.4102630  69.5963691   2.5423151  58.3135683
  69.7451009   4.0285684  58.0669704  63.8801873   1.0407878  73.1501831
  64.5901492   0.4001070  73.1088450  63.8371181   1.2920773  74.0728012
  71.8688652   7.9775232  76.0708410  71.8101198   7.2934452  75.4038993
  72.2708170   8.7194222  75.6189036  60.8879351  14.7937145  68.8642129
  61.1275949  15.4255670  69.5421148  60.0448547  14.4425185  69.1507489
  71.8706059   5.9414816  74.3022390  70.9832838   5.6040737  74.4248789
  72.4404610   5.2097847  74.5391156  53.5235206   2.2738907  67.6265442
  54.2106246   1.9600637  67.0386457  53.3683335   3.1780272  67.3532693
  65.4007213  10.6016268  71.2683633  65.3277384  11.4071239  71.7802938
  64.9584606  10.8008234  70.4431655  65.1896992   9.8388038  64.7786455
  64.4064514  10.3809718  64.8724679  65.8889737  10.3562018  65.1780696
  67.8605896  10.5003102  73.4241792  68.5733868  11.1350567  73.3517693
  67.3695925  10.5966968  72.6081794  69.5823423   4.4054355  64.9959084
  68.6479702   4.5255817  64.8263788  69.7600091   3.5026821  64.7319094
  62.9117810   8.2497545  74.2447363  63.6127269   8.8834028  74.3976757
  62.4412925   8.5912277  73.4843002  71.0372205   6.5915495  62.5295270
  71.3132049   6.4772090  63.4389144  70.1676704   6.1932980  62.4907443
  67.6726269  10.8401846  66.1728083  67.8548664  10.0223502  66.6355836
  68.4959255  11.0569538  65.7352973  68.0068435   9.7670031  63.4343132
  68.5356201   9.2562486  62.8213294  68.2696655   9.4512561  64.2988665
  58.5085528   7.7833900  71.1778465  59.0938964   7.0377588  71.3106370
  58.3110366   8.0937857  72.0615129  61.3624183  10.8185148  66.1940908
  60.6934558  11.3031275  65.7104948  61.2237053  11.0654368  67.1084286
  53.1003182   0.3539501  69.8982909  53.1387282  -0.1796909  70.6920027
  52.5943475  -0.1725294  69.2793886  65.5029451  12.8528891  72.7923566
  66.0547759  13.0160513  73.5572651  65.8435645  13.4433329  72.1203591
  70.3540326   7.6790149  78.6472221  70.8980230   8.2920107  78.1527175
  69.7727171   8.2369727  79.1639234  56.7311760  -0.9196397  62.9736840
  57.0265201  -1.8285719  62.9203894  55.8299796  -0.9408658  62.6517842
  68.6397839  10.8010867  69.7787248  68.5148978  10.0000607  69.2698194
  69.2976930  11.2957060  69.2901218  70.7032747   8.6019887  71.4066798
  69.7563083   8.4825238  71.3345125  71.0515520   7.7142385  71.4893060
  67.7079180   8.3972603  67.6071151  67.5604143   7.4689311  67.7878721
  68.5332674   8.4192694  67.1228226  71.3113302   9.2201162  68.6936023
  72.2359850   9.0144023  68.5560475  71.1428606   8.9717563  69.6025365
  71.1008618   9.7386829  64.0498115  71.2745496   9.1733252  63.2971967
  71.5937510  10.5387724  63.8677605  56.9185578   1.7501498  72.1161674
  56.3739046   2.5261306  72.2481948  57.7964928   2.0972303  71.9580795
  72.0883791   9.0553594  61.1495013  72.7834696   9.6760286  61.3682328
  72.4306941   8.2048945  61.4247391  57.7051600   0.8771395  75.0091831
  56.9633336   1.0254030  75.5956461  57.3844344   1.1379660  74.1458580
  73.9875214   6.5053299  62.6782344  74.5126538   6.8440572  61.9531664
  73.8997567   5.5700315  62.4945479  65.6495263  10.4187373  74.8072221
  65.9582389  10.1736520  75.6794920  66.4470745  10.6234011  74.3191091
  65.6715875  12.5725283  67.0377597  65.2320865  12.0801661  67.7310454
  66.4223992  12.0298250  66.7969672  58.1508214   8.7636823  67.0402225
  58.9766234   8.4640595  66.6600869  57.8002266   7.9944446  67.4892014
  63.1189747   8.1163292  69.1099899  62.4969756   7.4533997  68.8102127
  63.7894614   8.1424424  68.4273547  56.3516819   6.6823150  67.9991159
  55.5148727   6.2545324  67.8175160  56.3240464   6.8755593  68.9361950
  73.6769120   7.1386203  77.9833542  72.8864664   7.1210342  77.4438041
  73.4402475   7.6774497  78.7382579  62.6803254   6.6667215  62.5858359
  62.8291374   7.3502679  61.9325032  63.4869697   6.6472305  63.1007815
  75.2985192   6.4075611  75.5408292  75.0070000   6.7705591  76.3771753
  74.6857323   5.6942619  75.3621624  60.4355887   2.6932393  63.5919428
  60.1901929   1.7894723  63.7899638  60.6051801   2.6949543  62.6498906
  66.1798659   9.1615345  60.0570107  65.6072626   9.7805533  59.6040579
  66.7531453   9.7114707  60.5910029  69.3995919   9.4452496  61.1878689
  70.3326592   9.3798057  61.3911565  69.3119132  10.2808762  60.7293222
  72.0283936   8.7618366  58.1482637  71.9497567   8.4278230  59.0418395
  72.8493603   9.2540134  58.1474109  66.4484150   4.5493904  78.8586816
  67.3687160   4.7272503  79.0526863  66.4133733   3.6049950  78.7066516
  55.6666315  -0.2567502  67.7840091  55.3469100  -1.1102194  67.4914465
  55.1199744  -0.0418924  68.5398058  59.4446223   2.4594939  71.5009597
  59.6632233   3.3912047  71.5197631  59.8571997   2.1002913  72.2864401
  55.5354575   3.3635409  69.7533213  54.8418047   2.9489362  69.2403167
  56.2827566   3.4055946  69.1566631  64.1805358   1.4625284  79.7077408
  63.6972440   2.2625644  79.9141297  64.2666297   1.4733228  78.7544852
  57.4491318   3.2953663  67.6299227  57.4262006   3.3941351  66.6781110
  57.7591954   4.1418814  67.9516394  60.1078696   5.3529818  71.7445842
  61.0621949   5.3213761  71.6775773  59.9091219   4.8920442  72.5596068
  60.6978078   3.9230934  74.3116639  61.5170967   4.4175013  74.3351477
  60.9714886   3.0062902  74.2834207  58.4628925  10.8949438  68.7616040
  58.3283393  10.1349839  68.1954038  58.0460987  11.6190338  68.2944829
  69.5987888   6.0786361  57.7692615  70.3023738   6.2836364  58.3850271
  68.8750536   6.6463123  58.0341698  61.6198051  11.7918755  68.9734482
  61.5030435  12.7364187  68.8713173  60.7990497  11.4892316  69.3620282
  71.5074585   6.5168891  59.8191075  72.3420189   6.0850089  59.6368550
  71.3458928   6.3450904  60.7467969  71.1620477   3.0201004  61.1847414
  71.1069281   2.8545275  60.2435858  70.5366533   3.7277037  61.3409604
  55.9512992  -1.7430932  75.0108837  56.5971856  -2.2531978  75.4996062
  55.7430143  -1.0062250  75.5852262  68.4766384   5.3249916  80.5100977
  69.3457544   5.4990568  80.1487612  67.9973136   6.1444333  80.3876706
  62.6452565  12.4447017  72.1890411  63.5479811  12.4770627  72.5056906
  62.4189935  11.5147468  72.2036747  64.4006167  11.1978003  68.8500489
  63.4501798  11.1979865  68.7364862  64.7038653  10.4510738  68.3336524
  80.1358860  17.0338542  69.9146252  80.7737270  16.9145289  69.2109592
  80.0179703  17.9819386  69.9734204  76.9448566  16.9865970  69.8507776
  76.6067078  16.8707034  68.9628311  77.8138335  16.5857135  69.8308783
  72.8035382  18.8401446  65.8404667  72.2400247  18.7491383  65.0720955
  72.6887777  18.0201351  66.3207160  77.4268349  18.1400821  75.8093982
  77.4156990  17.7453620  74.9374486  77.5888989  17.4066894  76.4027753
  70.3499814  20.3352638  68.6788888  71.1421106  19.9943462  68.2635187
  70.5896464  20.4447613  69.5991041  78.3834941  22.5072414  61.1519132
  77.7322921  23.0926494  60.7653146  79.1779304  23.0378609  61.2114170
  72.3090568  19.5961551  61.5506267  73.0821444  19.0490538  61.4119142
  72.6615967  20.4605800  61.7620728  74.1475611  20.9237933  74.7573166
  73.8565477  21.8283564  74.6419832  74.7832595  20.9654461  75.4717236
  75.0731817  18.3014782  71.3474526  75.6695390  18.0770804  70.6331489
  75.1306789  17.5599527  71.9499973  74.6456846  15.7554217  59.1824717
  74.8982366  15.2335738  58.4208180  73.7081405  15.5920363  59.2851400
  79.6900129  14.7589995  66.9899460  80.4763218  14.3409419  66.6389877
  79.9538833  15.6636088  67.1581108  79.8610206  20.1962846  61.6888117
  79.2256039  20.2697472  62.4009021  79.5307612  20.7856445  61.0107196
  85.0908556  14.6965229  67.8932438  85.8233728  14.1264445  68.1270268
  84.3347911  14.3086829  68.3338944  74.3653135  17.6582323  61.3849092
  74.2489393  16.9827226  62.0530176  74.4755394  17.1714697  60.5681245
  76.7084675  17.1192470  65.0895781  76.3442883  16.5923091  65.8008702
  77.5651791  16.7290939  64.9162266  82.6133976   8.4086803  72.3527047
  82.2817301   9.2782214  72.1288262  82.0179590   8.0923087  73.0321077
  76.3490162  12.1482370  60.0857129  76.5164565  13.0162606  60.4527600
  76.1587332  12.3109652  59.1618419  79.1065496  20.6099349  71.7522960
  78.8066219  21.5124388  71.6438767  78.7616555  20.3431532  72.6044113
  72.5577977  17.0613146  67.7859664  71.6328474  16.9289360  67.9937356
  72.8062390  17.8407365  68.2829606  82.5062639  13.1281889  69.4320397
  81.5979517  13.0597297  69.1379158  82.4550235  13.6053834  70.2602222
  76.3279383  14.6040027  61.0703796  76.2079009  15.0497078  61.9089276
  75.6331972  14.9525345  60.5117334  69.9186788  16.7046419  68.6203453
  70.0479169  16.9580898  69.5342865  69.2384239  17.2974127  68.3008108
  74.0886275  27.3743669  64.7193927  74.0110305  28.3251494  64.7982408
  73.4847919  27.0289542  65.3768854  76.5803505  14.5471535  77.3755294
  75.8036839  15.1065455  77.3658159  77.2194068  15.0328318  77.8970164
  84.3724286  11.3298327  71.2098271  83.7298666  11.6230861  70.5638065
  83.8679214  11.2151248  72.0151468  82.0264449  15.0761501  61.8984130
  82.9382306  15.3088887  61.7231828  81.5174097  15.6598545  61.3359209
  74.8349878  17.3556988  76.9373261  75.5764562  17.8942032  76.6608085
  74.1286863  17.9823277  77.0944813  80.3105217  19.4986128  75.5345423
  80.7188573  19.0568539  74.7900055  79.5882479  18.9238756  75.7879616
  76.6636287  14.4358735  72.9078980  77.5097482  14.8598149  73.0513629
  76.6034925  13.7792359  73.6017543  80.6334032  20.0587319  69.2897712
  80.0042894  20.2233033  68.5873779  80.2459694  20.4728929  70.0608676
  84.5123264  20.9941757  66.6442075  83.8274302  21.3740658  66.0939109
  84.5967113  21.6037083  67.3774023  79.8135733  12.0963103  74.5660153
  79.5696664  12.8505164  74.0294429  80.0895663  12.4748451  75.4007400
  81.7674195  18.6401716  73.2437419  81.9791091  19.2833476  72.5671800
  81.7203944  17.8064032  72.7759349  79.3700424  11.2519537  70.1473991
  78.5084903  11.5500790  70.4390729  79.3962859  11.4689935  69.2155024
  76.1861994  19.7961727  66.5547797  76.6500339  20.0749430  65.7652419
  75.9218792  18.8945172  66.3720887  73.0786075  19.3433209  69.4927560
  73.6487432  19.7720477  68.8545044  73.6694187  19.0615793  70.1911746
  75.1230880  15.9184879  63.3637362  75.8254923  16.3705923  63.8311288
  74.7911508  15.2768698  63.9917255  73.5711241  14.5096636  77.7388571
  72.9409902  15.1912917  77.9723968  73.4647329  14.3979718  76.7941709
  68.8656214  14.1768432  68.6654495  68.0755268  14.4325961  68.1894606
  69.3567461  14.9916770  68.7706536  82.8820023  21.5173671  71.4159776
  83.7037467  21.1153859  71.1342458  82.8782426  21.4141905  72.3675892
  70.8170959  14.5413011  65.6237972  70.0202122  14.6531706  66.1421468
  70.5896551  14.8799664  64.7578863  76.6476627  21.0657715  73.5720487
  76.7121059  21.5278122  74.4078659  75.9387551  20.4355079  73.7002797
  67.1493917  14.4298923  71.0969486  67.4001955  15.3145932  71.3627062
  67.6853465  14.2503524  70.3244578  90.9726016  17.8612420  67.7644748
  90.2189725  17.2919818  67.6088752  91.1073558  17.8275084  68.7115382
  76.3624644  22.7325822  63.4399467  76.2270319  23.5777358  63.8684315
  76.9034457  22.9345100  62.6765401  72.8491984   8.8117402  80.1013822
  72.4558930   8.2583600  80.7761467  73.6658124   9.1227980  80.4920340
  69.8154042  20.2501260  64.0127392  70.3278562  21.0444510  64.1632957
  70.4676755  19.5527551  63.9460994  71.6248926  23.3667016  66.0950145
  71.8015555  24.2884981  65.9071129  72.4205760  23.0525436  66.5244525
  75.7659945  10.2275281  77.6934079  76.5069658  10.8282434  77.6138541
  75.9977868   9.4852919  77.1352121  70.9101283  15.4131648  75.9712309
  70.7954798  14.5116906  76.2719407  70.0545801  15.6595345  75.6197125
  77.9893121  23.3549389  77.5699809  77.5456975  22.5685767  77.2520714
  78.6510334  23.5428539  76.9043700  72.7480242  24.8845190  72.0960488
  73.2987667  24.7562254  71.3237482  71.9091718  25.1840079  71.7455380
  80.0874359  23.6352189  75.5981210  80.0692834  24.4561070  75.1061480
  81.0094279  23.5106264  75.8231352  76.5447413  21.1496318  76.4404719
  77.0775750  20.3884606  76.2104027  76.0161494  20.8569970  77.1828873
  79.7117108   6.2556384  71.9698361  79.3681377   7.1458026  71.8937471
  80.0796071   6.0658042  71.1067946  67.7802959  18.5789914  64.7886963
  68.6178181  18.9886923  64.5720670  67.9581226  17.6389357  64.7587157
  79.6767391  16.2464995  60.4770796  79.1614014  17.0169600  60.7159183
  79.4044699  15.5730131  61.1003857  77.2614502  11.0914696  65.5356034
  76.4056098  10.7021546  65.3561673  77.6741453  11.1706657  64.6755820
  78.7913648   8.6261039  69.9347594  78.2878444   8.5891174  69.1215399
  79.0844255   9.5353782  69.9944250  75.0356534   8.7099769  68.9413776
  75.9009531   8.5142578  68.5819665  75.1034043   8.4810121  69.8683132
  84.6501665  18.9997350  62.4123969  83.8731108  18.6608509  61.9679131
  85.3293146  19.0049973  61.7378934  79.4653694  14.1192087  62.3030577
  79.1603829  14.4338236  63.1540720  80.4184136  14.1973507  62.3457910
  77.9100126  20.2782310  63.9523531  77.3821487  19.5435070  63.6396768
  77.4087628  21.0556987  63.7063499  82.8892972  18.4731331  69.0690577
  82.2316646  19.1630592  69.1570706  83.6933371  18.8627763  69.4124563
  72.6418853  10.9401977  66.3130142  73.2162605  10.7177158  65.5803335
  73.2289836  11.0090671  67.0658744  81.6998430  16.8275704  67.1194519
  82.2130312  17.4605695  67.6216229  82.3499654  16.2276899  66.7537879
  72.9688440  12.9706438  60.3326028  72.1325753  13.3081124  60.6535302
  72.8293210  12.8355418  59.3953165  74.9441521   7.8143226  65.0405212
  74.2905933   7.4992243  64.4161827  74.9021995   7.1918966  65.7665035
  76.0552726  18.0962521  56.9558504  75.1479788  17.8651774  57.1549653
  76.5523758  17.3000140  57.1432485  78.9620805  26.8060028  59.8755190
  78.2882503  27.1091725  60.4840148  79.3486627  27.6089108  59.5260647
  78.1779261  14.3025159  69.3652859  77.2601823  14.5240106  69.2074547
  78.5939405  14.3771470  68.5064567  78.9614309  15.7016575  64.4955540
  79.7086128  16.2137972  64.1862662  79.2305899  15.3800628  65.3559933
  77.2340959  18.1975116  61.4782494  76.3252179  17.9134148  61.5754964
  77.2636043  18.6174194  60.6185801  82.4660227  21.8081705  65.2473662
  82.0122554  20.9672615  65.3038852  81.8354193  22.4443103  65.5848442
  81.4093146  12.7373691  66.4774329  80.6715903  12.2251077  66.8084572
  81.6619920  12.2974073  65.6657606  80.9093166  23.6458202  66.1823480
  81.2016140  24.2063259  65.4635845  81.4191787  23.9386763  66.9376639
  67.8029130  15.9180630  65.4597696  67.6053529  15.3249990  64.7348763
  67.2475794  15.6132840  66.1773635  75.7825853  15.8103736  67.5792289
  75.8374463  14.8577573  67.5034766  74.9717055  15.9663175  68.0633588
  76.9317047  19.7383859  58.8170573  76.4936477  19.0219718  58.3576210
  77.6727488  19.9659974  58.2555664  73.7218213  14.4280796  65.3382668
  72.9086079  14.7274967  65.7447860  74.2177207  14.0336485  66.0557150
  75.8726791  24.4238553  67.2716933  75.8302970  24.6499399  66.3425465
  76.7889490  24.1901927  67.4202734  79.3192425  14.8922620  74.1697562
  79.6741813  15.1194094  75.0292028  79.9664556  15.2240997  73.5474817
  85.0490162  18.0141056  64.8746891  84.9108060  18.2042652  63.9468080
  84.6926381  18.7760439  65.3314942  73.2132288  11.9999151  70.9543903
  73.8531667  11.8587911  70.2566866  72.3809819  11.7133665  70.5782505
  85.0759541  20.0817583  69.8858163  85.5096048  19.9892872  70.7341217
  85.7891122  20.0575084  69.2478179  73.9892592  21.3001582  67.0678896
  74.7833190  20.8051902  66.8661471  73.2784284  20.7719445  66.7046601
  78.8087436  23.6819677  71.4191263  78.8624459  24.2510614  72.1868979
  77.9402218  23.8521562  71.0545300  70.2975355  15.4444664  63.1438648
  69.3672943  15.3829119  63.3608610  70.3932827  14.9220616  62.3475290
  70.2160904  11.9699476  65.7316890  70.4767722  12.8844810  65.6226050
  71.0378077  11.5023919  65.8813503  71.6885830  13.3837234  72.9015714
  72.3608883  13.1754596  72.2528363  70.8615616  13.1859320  72.4620947
  85.9375091  20.1241284  72.4191048  86.1310981  21.0287094  72.6650323
  85.8375709  19.6648703  73.2529633  77.5911402  10.0099175  74.9181375
  76.9439317  10.7089124  74.8245852  78.3612417  10.4435318  75.2857624
  80.9990200  20.2748027  77.9931929  80.8475706  20.0458578  77.0762012
  80.9894879  21.2318628  78.0063274  77.7675536  17.8479939  72.9778195
  78.6967596  17.9991099  72.8047162  77.3466566  17.9363960  72.1226842
  76.5663868  21.8730604  70.7476733  76.4274954  21.5049388  71.6202671
  75.7778464  22.3878243  70.5760690  77.1612020  26.9739700  62.0902269
  77.3363776  26.5027744  62.9047892  76.4744808  27.6005467  62.3183530
  78.1169083  21.2512207  68.1365570  77.7818916  21.2112977  69.0323220
  77.6173029  20.5856922  67.6635981  72.0913327  16.6579837  73.6618152
  71.9533125  15.9260075  74.2629691  73.0018250  16.5688737  73.3802339
  81.0528275  18.5968241  58.4102630  80.4357445  17.8715069  58.3135683
  80.5844763  19.3577601  58.0669704  74.7195628  16.3699796  73.1501831
  75.4295246  15.7292988  73.1088450  74.6764936  16.6212691  74.0728012
  82.7082406  23.3067149  76.0708410  82.6494953  22.6226369  75.4038993
  83.1101925  24.0486139  75.6189036  73.4324562  13.3565014  74.9697471
  72.8961919  12.9055752  75.6219067  72.8441270  13.4910923  74.2267935
  71.7273105  30.1229063  68.8642129  71.9669703  30.7547587  69.5421148
  70.8842302  29.7717103  69.1507489  72.8426821  12.8153665  57.5323934
  71.9656287  12.6942466  57.1686181  73.3184574  12.0239744  57.2802823
  82.7099814  21.2706733  74.3022390  81.8226592  20.9332655  74.4248789
  83.2798365  20.5389764  74.5391156  64.3628961  17.6030825  67.6265442
  65.0500001  17.2892555  67.0386457  64.2077089  18.5072190  67.3532693
  69.1663683  12.4921022  72.0550465  69.0821872  11.8846691  71.3200875
  68.3446389  12.9830040  72.0559962  76.2400967  25.9308186  71.2683633
  76.1671139  26.7363157  71.7802938  75.7978360  26.1300151  70.4431655
  76.0290747  25.1679956  64.7786455  75.2458269  25.7101636  64.8724679
  76.7283492  25.6853935  65.1780696  79.3387397  10.9774585  67.4220660
  79.8356096  10.2244547  67.1021731  78.5674378  11.0138902  66.8563870
  87.1917154  16.6814951  69.0638952  87.1807030  17.5639666  68.6932885
  86.3234534  16.3286501  68.8693489  78.6999651  25.8295020  73.4241792
  79.4127623  26.4642484  73.3517693  78.2089679  25.9258886  72.6081794
  80.4217177  19.7346272  64.9959084  79.4873456  19.8547735  64.8263788
  80.5993846  18.8318739  64.7319094  75.9222366  13.1191968  67.1492345
  75.5520153  12.5663008  67.8373250  76.4181458  12.5150102  66.5967345
  83.8089729  15.5763592  65.5309118  84.2750181  16.4091583  65.4569420
  84.2597229  15.1108573  66.2354376  73.7511564  23.5789463  74.2447363
  74.4521024  24.2125946  74.3976757  73.2806679  23.9204195  73.4843002
  81.8765960  21.9207413  62.5295270  82.1525804  21.8064007  63.4389144
  81.0070459  21.5224898  62.4907443  81.7806392   7.9444179  69.5700019
  80.8669471   8.1748405  69.7382226  82.2099493   8.0282623  70.4214052
  81.5512850  16.1334070  72.0699913  80.8984300  16.3809978  71.4152366
  81.9293230  15.3198209  71.7362390  78.5120024  26.1693764  66.1728083
  78.6942418  25.3515420  66.6355836  79.3353010  26.3861456  65.7352973
  78.8462189  25.0961949  63.4343132  79.3749956  24.5854403  62.8213294
  79.1090409  24.7804479  64.2988665  77.6000423  16.8753882  78.5565950
  76.9241060  16.7748011  79.2268325  78.4228057  16.7193095  79.0201947
  69.3479282  23.1125818  71.1778465  69.9332719  22.3669506  71.3106370
  69.1504121  23.4229775  72.0615129  72.2017937  26.1477065  66.1940908
  71.5328313  26.6323193  65.7104948  72.0630807  26.3946286  67.1084286
  63.9396937  15.6831418  69.8982909  63.9781036  15.1495009  70.6920027
  63.4337230  15.1566624  69.2793886  76.3423206  28.1820809  72.7923566
  76.8941514  28.3452431  73.5572651  76.6829399  28.7725247  72.1203591
  71.3187699  10.5295959  73.3945451  71.3829026  11.3910790  72.9822849
  71.2554819   9.9169960  72.6617809  70.7939972  12.6019091  77.0418485
  71.4212011  12.2196169  77.6556010  69.9367891  12.3833293  77.4074178
  81.1934080  23.0082067  78.6472221  81.7373984  23.6212025  78.1527175
  80.6120925  23.5661645  79.1639234  67.5705514  14.4095520  62.9736840
  67.8658956  13.5006199  62.9203894  66.6693550  14.3883260  62.6517842
  79.4791593  26.1302785  69.7787248  79.3542733  25.3292524  69.2698194
  80.1370684  26.6248978  69.2901218  71.0999761  12.4851517  68.9564389
  70.3786347  13.0987485  68.8171862  71.8893017  13.0209282  68.8781035
  81.5426502  23.9311805  71.4066798  80.5956837  23.8117156  71.3345125
  81.8909275  23.0434303  71.4893060  73.9026075   9.8205944  75.2305040
  74.4260477  10.0668240  75.9931350  73.6838408  10.6525978  74.8108178
  69.2993356  12.0909618  63.0976165  68.9706062  11.2106997  62.9151271
  69.6532727  12.0357287  63.9852554  78.5472935  23.7264521  67.6071151
  78.3997897  22.7981228  67.7878721  79.3726428  23.7484612  67.1228226
  72.4135179  12.3782588  63.4651643  72.7531252  12.9068509  62.7430251
  72.8607300  12.7162994  64.2410209  82.1507057  24.5493080  68.6936023
  83.0753604  24.3435941  68.5560475  81.9822360  24.3009481  69.6025365
  75.1078620  10.7619639  72.9154711  74.7675440   9.9627452  73.3175391
  74.4017626  11.0621349  72.3431544  75.7595092   7.8468951  71.3682034
  76.5821161   7.3729429  71.2460924  76.0033155   8.6259435  71.8680720
  74.4003326  10.8757210  61.6644936  75.1211689  11.2538462  61.1608652
  73.7768630  11.5946086  61.7679914  78.5434449  11.5802358  62.6003268
  78.7598064  12.4626996  62.2992096  78.0628516  11.1888572  61.8708910
  73.2833671  14.5388072  69.1774013  73.1378251  14.8528375  70.0698294
  72.8058874  15.1572972  68.6244911  75.1430053  11.5290620  69.2254902
  75.1291622  10.6331713  68.8887200  75.8602482  11.5361283  69.8593188
  76.9956184  11.9627960  71.2708030  76.7373962  12.8845031  71.2692360
  76.4641225  11.5658394  71.9608494  81.9402373  25.0678747  64.0498115
  82.1139250  24.5025169  63.2971967  82.4331264  25.8679642  63.8677605
  67.7579333  17.0793416  72.1161674  67.2132801  17.8553224  72.2481948
  68.6358683  17.4264221  71.9580795  74.5466949  10.4105000  64.4942472
  74.6682861   9.4821646  64.6933360  74.2568992  10.4243686  63.5820788
  77.4158140   8.0959910  67.6309192  77.4379837   8.1599243  66.6761172
  77.8326199   7.2564419  67.8249698  87.7941764  17.8315170  65.6688415
  88.2372910  17.0822495  65.2707538  86.9168274  17.8225306  65.2862147
  82.9277545  24.3845511  61.1495013  83.6228450  25.0052204  61.3682328
  83.2700696  23.5340863  61.4247391  68.5445355  16.2063312  75.0091831
  67.8027091  16.3545948  75.5956461  68.2238099  16.4671578  74.1458580
  84.8268969  21.8345217  62.6782344  85.3520293  22.1732490  61.9531664
  84.7391321  20.8992232  62.4945479  76.4889017  25.7479291  74.8072221
  76.7976144  25.5028437  75.6794920  77.2864499  25.9525929  74.3191091
  76.5109629  27.9017200  67.0377597  76.0714620  27.4093579  67.7310454
  77.2617746  27.3590168  66.7969672  68.9901968  24.0928741  67.0402225
  69.8159988  23.7932513  66.6600869  68.6396020  23.3236364  67.4892014
  73.9583501  23.4455209  69.1099899  73.3363511  22.7825914  68.8102127
  74.6288368  23.4716341  68.4273547  67.1910573  22.0115068  67.9991159
  66.3542482  21.5837242  67.8175160  67.1634219  22.2047511  68.9361950
  74.0308029  11.9236997  78.7032405  74.0796184  12.7999120  78.3210174
  74.5730543  11.3814390  78.1304048  84.5162875  22.4678121  77.9833542
  83.7258418  22.4502259  77.4438041  84.2796229  23.0066414  78.7382579
  84.6360750  19.3170587  75.2966270  84.6858755  19.1520594  76.2381793
  84.5274673  18.4497846  74.9064151  73.5197008  21.9959133  62.5858359
  73.6685129  22.6794597  61.9325032  74.3263452  21.9764223  63.1007815
  81.9264512  15.3001515  76.6125577  82.8274375  15.1607980  76.3209575
  82.0012487  15.4655970  77.5523755  76.2607317  12.6768370  75.4578763
  75.3910627  12.9701936  75.1861352  76.4966798  13.2608815  76.1786027
  86.1378947  21.7367528  75.5408292  85.8463755  22.0997509  76.3771753
  85.5251078  21.0234537  75.3621624  87.3374629  19.3020408  68.0610862
  88.1721520  19.7410212  68.2248423  87.4733758  18.8259061  67.2419108
  84.3866135  16.8600143  74.0088350  84.8620256  17.0527789  73.2007201
  83.4631700  16.9159329  73.7631734  71.2749641  18.0224310  63.5919428
  71.0295683  17.1186640  63.7899638  71.4445556  18.0241461  62.6498906
  78.9646351   8.8947987  72.9744184  79.4828295   9.6309014  72.6490672
  78.6101484   9.2011980  73.8090943  70.5445289  13.7552668  61.0905590
  69.8514534  13.8297023  60.4345626  70.2997041  12.9913012  61.6127107
  77.0192414  24.4907263  60.0570107  76.4466381  25.1097450  59.6040579
  77.5925208  25.0406625  60.5910029  83.0867804  13.7365903  72.2416656
  84.0385227  13.8364001  72.2628880  82.9171254  12.9444172  72.7514740
  81.1082183  10.8221486  72.4276057  80.5132115  11.1026499  71.7322545
  80.8231880  11.3115387  73.1992798  80.2389674  24.7744413  61.1878689
  81.1720347  24.7089975  61.3911565  80.1512887  25.6100680  60.7293222
  82.8677690  24.0910284  58.1482637  82.7891322  23.7570147  59.0418395
  83.6887357  24.5832051  58.1474109  85.5655882  16.9572023  71.3558955
  85.5332202  16.0188024  71.5418639  86.1756505  17.0356060  70.6224780
  77.4039212  15.8268076  57.3986159  78.3498317  15.6974284  57.4674577
  77.0253457  15.0882738  57.8755587  85.7150370  13.7483066  71.4017238
  85.1989419  12.9641523  71.2147167  86.5990319  13.4201783  71.5663758
  83.3761097   7.4924082  67.3613051  83.1785918   7.1839170  68.2456383
  83.9860803   8.2185721  67.4910981  91.3832431  18.0188030  70.4964992
  92.1135820  17.7573318  71.0572695  90.7739377  17.2816752  70.5367060
  89.4647729  16.1595892  71.0939443  88.7380892  16.0251857  70.4855935
  89.0495015  16.4672721  71.8996161  77.2877905  19.8785822  78.8586816
  78.2080914  20.0564421  79.0526863  77.2527488  18.9341867  78.7066516
  75.5882130  13.7518052  57.3341045  74.6813585  13.4551165  57.4103758
  75.8658111  13.4547870  56.4675331  66.5060070  15.0724416  67.7840091
  66.1862854  14.2189724  67.4914465  65.9593498  15.2872994  68.5398058
  70.2839977  17.7886857  71.5009597  70.5025987  18.7203964  71.5197631
  70.6965751  17.4294831  72.2864401  77.2044195   8.2954942  63.4885286
  76.3944924   7.9502027  63.8640532  77.8928612   7.9862486  64.0772897
  79.1334744   7.3732989  65.1109582  79.6865782   7.7928442  65.7699606
  79.3704830   6.4468737  65.1532538  75.1567843  13.3620062  80.8912346
  75.0564570  14.3114419  80.8224437  74.9389385  13.0338301  80.0188416
  74.3580914  10.6104987  57.4753024  75.2200078  10.9359886  57.7348841
  74.5431258   9.8236483  56.9626090  66.3748330  18.6927327  69.7533213
  65.6811801  18.2781280  69.2403167  67.1221321  18.7347864  69.1566631
  82.5113551   9.4833514  64.6188247  81.9312220  10.1418318  64.2366299
  82.2449483   8.6610859  64.2075664  80.9617117   8.8838572  66.8209567
  81.4616895   8.9955106  66.0123886  81.6052725   8.5799624  67.4610375
  75.0199113  16.7917201  79.7077408  74.5366195  17.5917561  79.9141297
  75.1060052  16.8025146  78.7544852  68.2885072  18.6245581  67.6299227
  68.2655761  18.7233268  66.6781110  68.5985709  19.4710732  67.9516394
  70.9472450  20.6821736  71.7445842  71.9015704  20.6505678  71.6775773
  70.7484974  20.2212360  72.5596068  71.5371832  19.2522852  74.3116639
  72.3564721  19.7466931  74.3351477  71.8108640  18.3354820  74.2834207
  81.2938429  11.6433604  63.6744595  80.4064284  11.9283255  63.4564790
  81.7092418  11.4827368  62.8271872  84.6452965  11.6680125  67.3898934
  85.4213355  12.1576578  67.6623551  83.9201099  12.0938179  67.8470804
  87.0825523  12.3807745  68.4472875  87.6770014  12.1403480  67.7366183
  87.1552107  11.6614875  69.0746411  69.3022679  26.2241355  68.7616040
  69.1677147  25.4641756  68.1954038  68.8854741  26.9482255  68.2944829
  80.4381642  21.4078279  57.7692615  81.1417492  21.6128281  58.3850271
  79.7144291  21.9755041  58.0341698  81.2679452  17.1588140  63.8894885
  81.2114654  17.6156692  63.0502518  81.8207795  16.3978825  63.7117728
  85.0784258  12.9477872  64.7145005  84.8221193  12.5474508  65.5453212
  84.4537126  13.6621666  64.5895144  89.3896596  15.6873945  67.2216296
  88.8296154  15.7567135  67.9947858  88.7840100  15.5114930  66.5015792
  72.4591805  27.1210672  68.9734482  72.3424189  28.0656105  68.8713173
  71.6384251  26.8184234  69.3620282  82.3468340  21.8460808  59.8191075
  83.1813943  21.4142007  59.6368550  82.1852682  21.6742822  60.7467969
  82.0014232  18.3492921  61.1847414  81.9463036  18.1837193  60.2435858
  81.3760287  19.0568954  61.3409604  66.7906747  13.5860986  75.0108837
  67.4365610  13.0759940  75.4996062  66.5823898  14.3229668  75.5852262
  79.3160139  20.6541833  80.5100977  80.1851299  20.8282486  80.1487612
  78.8366890  21.4736250  80.3876706  75.3110357   7.8501030  60.7632733
  75.2989027   8.7942870  60.9201004  76.2033779   7.6671176  60.4692194
  73.4846319  27.7738934  72.1890411  74.3873566  27.8062545  72.5056906
  73.2583689  26.8439385  72.2036747  75.2399921  26.5269921  68.8500489
  74.2895552  26.5271783  68.7364862  75.5432407  25.7802655  68.3336524
  71.1304238  10.7328603  79.1083851  71.9935699  10.3765408  79.3187175
  70.5569648  10.3942498  79.7959255  90.9752615  32.3630459  69.9146252
  91.6131025  32.2437207  69.2109592  90.8573458  33.3111303  69.9734204
  87.7842321  32.3157887  69.8507776  87.4460832  32.1998952  68.9628311
  88.6532089  31.9149052  69.8308783  83.6429137  34.1693364  65.8404667
  83.0794002  34.0783301  65.0720955  83.5281532  33.3493268  66.3207160
  88.2662104  33.4692739  75.8093982  88.2550745  33.0745537  74.9374486
  88.4282743  32.7358812  76.4027753  81.1893569  35.6644555  68.6788888
  81.9814860  35.3235380  68.2635187  81.4290219  35.7739530  69.5991041
  89.2228695  37.8364332  61.1519132  88.5716675  38.4218412  60.7653146
  90.0173058  38.3670526  61.2114170  83.1484322  34.9253469  61.5506267
  83.9215198  34.3782456  61.4119142  83.5009721  35.7897718  61.7620728
  84.9869365  36.2529851  74.7573166  84.6959231  37.1575482  74.6419832
  85.6226349  36.2946379  75.4717236  85.9125572  33.6306699  71.3474526
  86.5089144  33.4062722  70.6331489  85.9700543  32.8891445  71.9499973
  85.4850600  31.0846135  59.1824717  85.7376121  30.5627656  58.4208180
  84.5475159  30.9212280  59.2851400  90.5293883  30.0881913  66.9899460
  91.3156972  29.6701336  66.6389877  90.7932587  30.9928005  67.1581108
  90.7003960  35.5254763  61.6888117  90.0649793  35.5989390  62.4009021
  90.3701367  36.1148362  61.0107196  95.9302310  30.0257146  67.8932438
  96.6627482  29.4556363  68.1270268  95.1741666  29.6378747  68.3338944
  85.2046889  32.9874241  61.3849092  85.0883147  32.3119144  62.0530176
  85.3149149  32.5006615  60.5681245  87.5478430  32.4484388  65.0895781
  87.1836637  31.9215009  65.8008702  88.4045546  32.0582857  64.9162266
  93.4527731  23.7378720  72.3527047  93.1211055  24.6074131  72.1288262
  92.8573344  23.4215004  73.0321077  87.1883917  27.4774288  60.0857129
  87.3558319  28.3454524  60.4527600  86.9981086  27.6401569  59.1618419
  89.9459250  35.9391266  71.7522960  89.6459973  36.8416305  71.6438767
  89.6010310  35.6723450  72.6044113  83.3971732  32.3905063  67.7859664
  82.4722228  32.2581277  67.9937356  83.6456145  33.1699283  68.2829606
  93.3456394  28.4573807  69.4320397  92.4373271  28.3889215  69.1379158
  93.2943990  28.9345752  70.2602222  87.1673138  29.9331945  61.0703796
  87.0472763  30.3788996  61.9089276  86.4725726  30.2817263  60.5117334
  80.7580543  32.0338337  68.6203453  80.8872924  32.2872816  69.5342865
  80.0777994  32.6266045  68.3008108  84.9280030  42.7035587  64.7193927
  84.8504060  43.6543412  64.7982408  84.3241674  42.3581459  65.3768854
  87.4197260  29.8763452  77.3755294  86.6430594  30.4357372  77.3658159
  88.0587823  30.3620235  77.8970164  95.2118040  26.6590245  71.2098271
  94.5692421  26.9522778  70.5638065  94.7072969  26.5443165  72.0151468
  92.8658204  30.4053418  61.8984130  93.7776060  30.6380805  61.7231828
  92.3567851  30.9890462  61.3359209  85.6743632  32.6848906  76.9373261
  86.4158316  33.2233950  76.6608085  84.9680617  33.3115194  77.0944813
  91.1498972  34.8278046  75.5345423  91.5582328  34.3860457  74.7900055
  90.4276233  34.2530674  75.7879616  87.5030042  29.7650653  72.9078980
  88.3491237  30.1890066  73.0513629  87.4428679  29.1084277  73.6017543
  91.4727786  35.3879237  69.2897712  90.8436649  35.5524951  68.5873779
  91.0853448  35.8020846  70.0608676  95.3517018  36.3233675  66.6442075
  94.6668056  36.7032576  66.0939109  95.4360868  36.9329001  67.3774023
  90.6529487  27.4255021  74.5660153  90.4090419  28.1797082  74.0294429
  90.9289418  27.8040369  75.4007400  92.6067950  33.9693634  73.2437419
  92.8184845  34.6125393  72.5671800  92.5597698  33.1355950  72.7759349
  90.2094179  26.5811454  70.1473991  89.3478658  26.8792708  70.4390729
  90.2356613  26.7981853  69.2155024  87.0255748  35.1253645  66.5547797
  87.4894094  35.4041348  65.7652419  86.7612546  34.2237089  66.3720887
  83.9179829  34.6725126  69.4927560  84.4881186  35.1012395  68.8545044
  84.5087941  34.3907711  70.1911746  85.9624634  31.2476797  63.3637362
  86.6648678  31.6997841  63.8311288  85.6305263  30.6060616  63.9917255
  84.4104996  29.8388554  77.7388571  83.7803656  30.5204835  77.9723968
  84.3041084  29.7271635  76.7941709  79.7049968  29.5060350  68.6654495
  78.9149022  29.7617878  68.1894606  80.1961216  30.3208688  68.7706536
  93.7213778  36.8465589  71.4159776  94.5431221  36.4445776  71.1342458
  93.7176181  36.7433823  72.3675892  81.6564714  29.8704929  65.6237972
  80.8595877  29.9823623  66.1421468  81.4290306  30.2091581  64.7578863
  87.4870381  36.3949632  73.5720487  87.5514814  36.8570039  74.4078659
  86.7781305  35.7646997  73.7002797  77.9887671  29.7590840  71.0969486
  78.2395710  30.6437850  71.3627062  78.5247220  29.5795442  70.3244578
 101.8119771  33.1904337  67.7644748 101.0583479  32.6211736  67.6088752
 101.9467312  33.1567002  68.7115382  87.2018399  38.0617740  63.4399467
  87.0664074  38.9069275  63.8684315  87.7428211  38.2637017  62.6765401
  83.6885738  24.1409320  80.1013822  83.2952684  23.5875518  80.7761467
  84.5051879  24.4519898  80.4920340  80.6547796  35.5793178  64.0127392
  81.1672317  36.3736428  64.1632957  81.3070509  34.8819468  63.9460994
  82.4642681  38.6958934  66.0950145  82.6409309  39.6176899  65.9071129
  83.2599514  38.3817353  66.5244525  86.6053699  25.5567199  77.6934079
  87.3463413  26.1574352  77.6138541  86.8371622  24.8144836  77.1352121
  81.7495037  30.7423566  75.9712309  81.6348553  29.8408823  76.2719407
  80.8939555  30.9887263  75.6197125  88.8286875  38.6841306  77.5699809
  88.3850729  37.8977685  77.2520714  89.4904089  38.8720457  76.9043700
  90.9268113  38.9644106  75.5981210  90.9086589  39.7852987  75.1061480
  91.8488033  38.8398181  75.8231352  87.3841167  36.4788236  76.4404719
  87.9169504  35.7176524  76.2104027  86.8555249  36.1861887  77.1828873
  90.5510862  21.5848302  71.9698361  90.2075132  22.4749943  71.8937471
  90.9189825  21.3949959  71.1067946  78.6196713  33.9081832  64.7886963
  79.4571935  34.3178840  64.5720670  78.7974981  32.9681274  64.7587157
  90.5161145  31.5756913  60.4770796  90.0007769  32.3461517  60.7159183
  90.2438454  30.9022049  61.1003857  88.1008256  26.4206614  65.5356034
  87.2449853  26.0313464  65.3561673  88.5135208  26.4998574  64.6755820
  89.6307403  23.9552957  69.9347594  89.1272198  23.9183092  69.1215399
  89.9238010  24.8645699  69.9944250  85.8750289  24.0391687  68.9413776
  86.7403285  23.8434495  68.5819665  85.9427798  23.8102038  69.8683132
  95.4895419  34.3289267  62.4123969  94.7124862  33.9900427  61.9679131
  96.1686900  34.3341891  61.7378934  90.3047448  29.4484005  62.3030577
  89.9997584  29.7630154  63.1540720  91.2577890  29.5265425  62.3457910
  88.7493880  35.6074228  63.9523531  88.2215242  34.8726988  63.6396768
  88.2481383  36.3848904  63.7063499  93.7286726  33.8023249  69.0690577
  93.0710401  34.4922510  69.1570706  94.5327125  34.1919681  69.4124563
  83.4812608  26.2693894  66.3130142  84.0556360  26.0469076  65.5803335
  84.0683590  26.3382589  67.0658744  92.5392185  32.1567621  67.1194519
  93.0524067  32.7897613  67.6216229  93.1893409  31.5568817  66.7537879
  83.8082195  28.2998355  60.3326028  82.9719507  28.6373042  60.6535302
  83.6686965  28.1647335  59.3953165  85.7835275  23.1435143  65.0405212
  85.1299688  22.8284161  64.4161827  85.7415750  22.5210884  65.7665035
  86.8946480  33.4254438  56.9558504  85.9873542  33.1943692  57.1549653
  87.3917512  32.6292058  57.1432485  89.8014559  42.1351946  59.8755190
  89.1276258  42.4383642  60.4840148  90.1880381  42.9381026  59.5260647
  89.0173016  29.6317077  69.3652859  88.0995577  29.8532024  69.2074547
  89.4333159  29.7063387  68.5064567  89.8008064  31.0308493  64.4955540
  90.5479883  31.5429890  64.1862662  90.0699653  30.7092545  65.3559933
  88.0734714  33.5267033  61.4782494  87.1645933  33.2426066  61.5754964
  88.1029798  33.9466112  60.6185801  93.3053981  37.1373623  65.2473662
  92.8516308  36.2964533  65.3038852  92.6747948  37.7735021  65.5848442
  92.2486901  28.0665609  66.4774329  91.5109658  27.5542995  66.8084572
  92.5013674  27.6265990  65.6657606  91.7486920  38.9750119  66.1823480
  92.0409895  39.5355177  65.4635845  92.2585541  39.2678680  66.9376639
  92.3498528  20.8441861  67.0716098  92.6557405  19.9839224  66.7842013
  93.0751133  21.4359481  66.8715092  78.6422884  31.2472547  65.4597696
  78.4447284  30.6541908  64.7348763  78.0869548  30.9424758  66.1773635
  86.6219608  31.1395654  67.5792289  86.6768218  30.1869490  67.5034766
  85.8110810  31.2955093  68.0633588  87.7710802  35.0675777  58.8170573
  87.3330232  34.3511636  58.3576210  88.5121242  35.2951892  58.2555664
  84.5611968  29.7572714  65.3382668  83.7479833  30.0566884  65.7447860
  85.0570962  29.3628402  66.0557150  90.1586179  30.2214538  74.1697562
  90.5135567  30.4486011  75.0292028  90.8058311  30.5532915  73.5474817
  95.8883916  33.3432974  64.8746891  95.7501815  33.5334570  63.9468080
  95.5320135  34.1052357  65.3314942  84.0526042  27.3291069  70.9543903
  84.6925422  27.1879828  70.2566866  83.2203573  27.0425583  70.5782505
  95.9153296  35.4109501  69.8858163  96.3489803  35.3184790  70.7341217
  96.6284877  35.3867001  69.2478179  84.8286346  36.6293500  67.0678896
  85.6226945  36.1343820  66.8661471  84.1178039  36.1011363  66.7046601
  89.6481191  39.0111595  71.4191263  89.7018213  39.5802531  72.1868979
  88.7795972  39.1813480  71.0545300  81.1369110  30.7736581  63.1438648
  80.2066698  30.7121037  63.3608610  81.2326582  30.2512534  62.3475290
  81.0554659  27.2991394  65.7316890  81.3161476  28.2136727  65.6226050
  81.8771831  26.8315837  65.8813503  82.5279584  28.7129151  72.9015714
  83.2002638  28.5046513  72.2528363  81.7009371  28.5151237  72.4620947
  96.7768846  35.4533202  72.4191048  96.9704736  36.3579012  72.6650323
  96.6769464  34.9940621  73.2529633  88.4305156  25.3391092  74.9181375
  87.7833071  26.0381042  74.8245852  89.2006172  25.7727236  75.2857624
  91.8383954  35.6039944  77.9931929  91.6869461  35.3750496  77.0762012
  91.8288634  36.5610546  78.0063274  88.6069291  33.1771857  72.9778195
  89.5361351  33.3283017  72.8047162  88.1860321  33.2655878  72.1226842
  87.4057622  37.2022522  70.7476733  87.2668708  36.8341306  71.6202671
  86.6172219  37.7170161  70.5760690  88.0005774  42.3031618  62.0902269
  88.1757530  41.8319661  62.9047892  87.3138562  42.9297384  62.3183530
  88.9562838  36.5804124  68.1365570  88.6212670  36.5404894  69.0323220
  88.4566783  35.9148840  67.6635981  82.9307082  31.9871754  73.6618152
  82.7926879  31.2551993  74.2629691  83.8412005  31.8980654  73.3802339
  91.8922029  33.9260159  58.4102630  91.2751200  33.2006987  58.3135683
  91.4238518  34.6869519  58.0669704  85.5589382  31.6991714  73.1501831
  86.2689001  31.0584906  73.1088450  85.5158690  31.9504608  74.0728012
  93.5476161  38.6359067  76.0708410  93.4888707  37.9518287  75.4038993
  93.9495679  39.3778057  75.6189036  84.2718316  28.6856931  74.9697471
  83.7355673  28.2347670  75.6219067  83.6835025  28.8202840  74.2267935
  83.6820575  28.1445583  57.5323934  82.8050041  28.0234384  57.1686181
  84.1578328  27.3531661  57.2802823  93.5493568  36.5998651  74.3022390
  92.6620347  36.2624573  74.4248789  94.1192119  35.8681682  74.5391156
  75.2022715  32.9322743  67.6265442  75.8893755  32.6184473  67.0386457
  75.0470844  33.8364107  67.3532693  80.0057437  27.8212939  72.0550465
  79.9215626  27.2138609  71.3200875  79.1840144  28.3121957  72.0559962
  86.8684501  40.4971873  64.7786455  86.0852023  41.0393553  64.8724679
  87.5677246  41.0145853  65.1780696  90.1781151  26.3066503  67.4220660
  90.6749851  25.5536465  67.1021731  89.4068133  26.3430819  66.8563870
  98.0310909  32.0106868  69.0638952  98.0200785  32.8931584  68.6932885
  97.1628288  31.6578419  68.8693489  89.5393405  41.1586937  73.4241792
  90.2521377  41.7934402  73.3517693  89.0483434  41.2550803  72.6081794
  91.2610932  35.0638190  64.9959084  90.3267211  35.1839652  64.8263788
  91.4387600  34.1610657  64.7319094  86.7616120  28.4483886  67.1492345
  86.3913908  27.8954926  67.8373250  87.2575212  27.8442019  66.5967345
  94.6483483  30.9055509  65.5309118  95.1143935  31.7383501  65.4569420
  95.0990984  30.4400491  66.2354376  84.5905319  38.9081381  74.2447363
  85.2914778  39.5417864  74.3976757  84.1200434  39.2496112  73.4843002
  92.7159714  37.2499331  62.5295270  92.9919558  37.1355925  63.4389144
  91.8464213  36.8516815  62.4907443  92.6200146  23.2736096  69.5700019
  91.7063226  23.5040323  69.7382226  93.0493248  23.3574540  70.4214052
  92.3906605  31.4625988  72.0699913  91.7378055  31.7101896  71.4152366
  92.7686984  30.6490126  71.7362390  89.3513778  41.4985681  66.1728083
  89.5336173  40.6807337  66.6355836  90.1746764  41.7153374  65.7352973
  89.6855944  40.4253866  63.4343132  90.2143710  39.9146321  62.8213294
  89.9484163  40.1096397  64.2988665  88.4394178  32.2045799  78.5565950
  87.7634815  32.1039929  79.2268325  89.2621811  32.0485013  79.0201947
  80.1873037  38.4417736  71.1778465  80.7726473  37.6961424  71.3106370
  79.9897875  38.7521692  72.0615129  83.0411692  41.4768983  66.1940908
  82.3722067  41.9615111  65.7104948  82.9024562  41.7238204  67.1084286
  74.7790691  31.0123336  69.8982909  74.8174791  30.4786927  70.6920027
  74.2730984  30.4858541  69.2793886  82.1581454  25.8587876  73.3945451
  82.2222780  26.7202707  72.9822849  82.0948574  25.2461878  72.6617809
  81.6333726  27.9311009  77.0418485  82.2605765  27.5488086  77.6556010
  80.7761645  27.7125211  77.4074178  92.0327835  38.3373984  78.6472221
  92.5767739  38.9503942  78.1527175  91.4514680  38.8953563  79.1639234
  78.4099269  29.7387438  62.9736840  78.7052710  28.8298117  62.9203894
  77.5087305  29.7175178  62.6517842  90.3185348  41.4594702  69.7787248
  90.1936487  40.6584442  69.2698194  90.9764439  41.9540896  69.2901218
  81.9393516  27.8143435  68.9564389  81.2180102  28.4279402  68.8171862
  82.7286772  28.3501200  68.8781035  92.3820256  39.2603722  71.4066798
  91.4350592  39.1409073  71.3345125  92.7303029  38.3726220  71.4893060
  84.7419829  25.1497861  75.2305040  85.2654231  25.3960158  75.9931350
  84.5232163  25.9817896  74.8108178  80.1387111  27.4201536  63.0976165
  79.8099817  26.5398915  62.9151271  80.4926481  27.3649204  63.9852554
  89.3866689  39.0556439  67.6071151  89.2391652  38.1273146  67.7878721
  90.2120183  39.0776529  67.1228226  83.2528934  27.7074506  63.4651643
  83.5925006  28.2360427  62.7430251  83.7001054  28.0454912  64.2410209
  92.9900811  39.8784997  68.6936023  93.9147359  39.6727859  68.5560475
  92.8216115  39.6301398  69.6025365  85.9472375  26.0911556  72.9154711
  85.6069195  25.2919369  73.3175391  85.2411381  26.3913267  72.3431544
  86.5988846  23.1760869  71.3682034  87.4214916  22.7021347  71.2460924
  86.8426910  23.9551352  71.8680720  85.2397081  26.2049127  61.6644936
  85.9605443  26.5830380  61.1608652  84.6162385  26.9238004  61.7679914
  89.3828204  26.9094276  62.6003268  89.5991818  27.7918914  62.2992096
  88.9022271  26.5180490  61.8708910  84.1227425  29.8679989  69.1774013
  83.9772006  30.1820292  70.0698294  83.6452629  30.4864890  68.6244911
  85.9823808  26.8582537  69.2254902  85.9685377  25.9623631  68.8887200
  86.6996236  26.8653201  69.8593188  87.8349939  27.2919878  71.2708030
  87.5767717  28.2136948  71.2692360  87.3034979  26.8950312  71.9608494
  92.7796127  40.3970665  64.0498115  92.9533005  39.8317087  63.2971967
  93.2725019  41.1971560  63.8677605  78.5973087  32.4085334  72.1161674
  78.0526555  33.1845142  72.2481948  79.4752437  32.7556138  71.9580795
  85.3860704  25.7396918  64.4942472  85.5076615  24.8113564  64.6933360
  85.0962746  25.7535604  63.5820788  88.2551894  23.4251828  67.6309192
  88.2773591  23.4891161  66.6761172  88.6719953  22.5856337  67.8249698
  98.6335519  33.1607088  65.6688415  99.0766665  32.4114413  65.2707538
  97.7562029  33.1517224  65.2862147  93.7671300  39.7137429  61.1495013
  94.4622205  40.3344122  61.3682328  94.1094450  38.8632780  61.4247391
  79.3839109  31.5355230  75.0091831  78.6420845  31.6837865  75.5956461
  79.0631853  31.7963496  74.1458580  95.6662723  37.1637135  62.6782344
  96.1914047  37.5024407  61.9531664  95.5785076  36.2284150  62.4945479
  87.3282772  41.0771208  74.8072221  87.6369898  40.8320355  75.6794920
  88.1258254  41.2817847  74.3191091  79.8295723  39.4220659  67.0402225
  80.6553743  39.1224431  66.6600869  79.4789775  38.6528281  67.4892014
  78.0304328  37.3406985  67.9991159  77.1936236  36.9129160  67.8175160
  78.0027973  37.5339429  68.9361950  84.8701783  27.2528915  78.7032405
  84.9189939  28.1291038  78.3210174  85.4124298  26.7106308  78.1304048
  95.3556629  37.7970038  77.9833542  94.5652173  37.7794177  77.4438041
  95.1189984  38.3358332  78.7382579  95.4754504  34.6462505  75.2966270
  95.5252509  34.4812512  76.2381793  95.3668428  33.7789764  74.9064151
  84.3590763  37.3251050  62.5858359  84.5078883  38.0086515  61.9325032
  85.1657206  37.3056140  63.1007815  92.7658267  30.6293433  76.6125577
  93.6668129  30.4899898  76.3209575  92.8406241  30.7947888  77.5523755
  87.1001072  28.0060287  75.4578763  86.2304381  28.2993853  75.1861352
  87.3360552  28.5900732  76.1786027  96.9772701  37.0659446  75.5408292
  96.6857509  37.4289427  76.3771753  96.3644832  36.3526454  75.3621624
  98.1768383  34.6312326  68.0610862  99.0115275  35.0702130  68.2248423
  98.3127512  34.1550979  67.2419108  95.2259889  32.1892061  74.0088350
  95.7014011  32.3819707  73.2007201  94.3025455  32.2451247  73.7631734
  82.1143396  33.3516228  63.5919428  81.8689438  32.4478558  63.7899638
  82.2839310  33.3533378  62.6498906  89.8040106  24.2239904  72.9744184
  90.3222050  24.9600931  72.6490672  89.4495239  24.5303898  73.8090943
  81.3839043  29.0844586  61.0905590  80.6908288  29.1588941  60.4345626
  81.1390795  28.3204929  61.6127107  90.0552700  20.6440187  68.4945080
  90.3354454  19.9763376  69.1205507  90.8403307  20.8369282  67.9819744
  87.8586168  39.8199181  60.0570107  87.2860135  40.4389368  59.6040579
  88.4318962  40.3698542  60.5910029  93.9261558  29.0657821  72.2416656
  94.8778981  29.1655919  72.2628880  93.7565009  28.2736089  72.7514740
  91.9475938  26.1513404  72.4276057  91.3525870  26.4318417  71.7322545
  91.6625634  26.6407305  73.1992798  91.0783428  40.1036331  61.1878689
  92.0114101  40.0381893  61.3911565  90.9906641  40.9392598  60.7293222
  93.7071445  39.4202201  58.1482637  93.6285076  39.0862065  59.0418395
  94.5281112  39.9123969  58.1474109  96.4049636  32.2863941  71.3558955
  96.3725956  31.3479941  71.5418639  97.0150260  32.3647977  70.6224780
  88.2432967  31.1559994  57.3986159  89.1892072  31.0266202  57.4674577
  87.8647212  30.4174655  57.8755587  96.5544125  29.0774984  71.4017238
  96.0383173  28.2933441  71.2147167  97.4384073  28.7493701  71.5663758
  94.2154851  22.8216000  67.3613051  94.0179673  22.5131088  68.2456383
  94.8254557  23.5477638  67.4910981 102.2226186  33.3479947  70.4964992
 102.9529574  33.0865236  71.0572695 101.6133131  32.6108669  70.5367060
 100.3041483  31.4887810  71.0939443  99.5774647  31.3543775  70.4855935
  99.8888770  31.7964639  71.8996161  88.1271659  35.2077740  78.8586816
  89.0474669  35.3856339  79.0526863  88.0921242  34.2633785  78.7066516
  86.4275884  29.0809970  57.3341045  85.5207339  28.7843083  57.4103758
  86.7051865  28.7839788  56.4675331  77.3453824  30.4016333  67.7840091
  77.0256609  29.5481642  67.4914465  76.7987253  30.6164911  68.5398058
  81.1233732  33.1178774  71.5009597  81.3419742  34.0495882  71.5197631
  81.5359506  32.7586749  72.2864401  88.0437950  23.6246860  63.4885286
  87.2338678  23.2793945  63.8640532  88.7322367  23.3154403  64.0772897
  89.9728498  22.7024906  65.1109582  90.5259537  23.1220360  65.7699606
  90.2098584  21.7760655  65.1532538  85.9961597  28.6911980  80.8912346
  85.8958324  29.6406337  80.8224437  85.7783139  28.3630219  80.0188416
  85.1974669  25.9396905  57.4753024  86.0593833  26.2651803  57.7348841
  85.3825013  25.1528401  56.9626090  77.2142084  34.0219245  69.7533213
  76.5205556  33.6073198  69.2403167  77.9615075  34.0639781  69.1566631
  93.3507305  24.8125432  64.6188247  92.7705974  25.4710236  64.2366299
  93.0843238  23.9902776  64.2075664  91.8010872  24.2130489  66.8209567
  92.3010650  24.3247024  66.0123886  92.4446479  23.9091542  67.4610375
  85.8592867  32.1209119  79.7077408  85.3759949  32.9209479  79.9141297
  85.9453806  32.1317064  78.7544852  79.1278827  33.9537499  67.6299227
  79.1049515  34.0525186  66.6781110  79.4379463  34.8002649  67.9516394
  81.7866205  36.0113654  71.7445842  82.7409458  35.9797596  71.6775773
  81.5878728  35.5504277  72.5596068  82.3765587  34.5814770  74.3116639
  83.1958476  35.0758848  74.3351477  82.6502395  33.6646738  74.2834207
  92.1332183  26.9725522  63.6744595  91.2458038  27.2575173  63.4564790
  92.5486172  26.8119285  62.8271872  95.4846719  26.9972043  67.3898934
  96.2607109  27.4868495  67.6623551  94.7594853  27.4230097  67.8470804
  97.9219278  27.7099662  68.4472875  98.5163769  27.4695398  67.7366183
  97.9945862  26.9906793  69.0746411  80.1416434  41.5533273  68.7616040
  80.0070902  40.7933674  68.1954038  79.7248496  42.2774173  68.2944829
  91.2775397  36.7370197  57.7692615  91.9811247  36.9420199  58.3850271
  90.5538045  37.3046959  58.0341698  92.1073207  32.4880058  63.8894885
  92.0508408  32.9448609  63.0502518  92.6601549  31.7270743  63.7117728
  95.9178013  28.2769790  64.7145005  95.6614947  27.8766425  65.5453212
  95.2930881  28.9913584  64.5895144 100.2290351  31.0165863  67.2216296
  99.6689909  31.0859052  67.9947858  99.6233854  30.8406848  66.5015792
  93.1862094  37.1752726  59.8191075  94.0207698  36.7433924  59.6368550
  93.0246437  37.0034740  60.7467969  92.8407986  33.6784839  61.1847414
  92.7856790  33.5129111  60.2435858  92.2154041  34.3860872  61.3409604
  77.6300501  28.9152904  75.0108837  78.2759365  28.4051858  75.4996062
  77.4217652  29.6521585  75.5852262  90.1553893  35.9833751  80.5100977
  91.0245053  36.1574403  80.1487612  89.6760645  36.8028168  80.3876706
  86.1504112  23.1792948  60.7632733  86.1382782  24.1234788  60.9201004
  87.0427534  22.9963094  60.4692194  89.9656231  19.7735725  65.0178670
  89.1988627  19.2194212  65.1635352  90.3766936  19.8457594  65.8792821
  81.9697992  26.0620521  79.1083851  82.8329454  25.7057325  79.3187175
  81.3963403  25.7234415  79.7959255 101.8146369  47.6922377  69.9146252
 102.4524779  47.5729124  69.2109592 101.6967212  48.6403221  69.9734204
  98.6236075  47.6449805  69.8507776  98.2854587  47.5290870  68.9628311
  99.4925844  47.2440970  69.8308783  94.4822891  49.4985281  65.8404667
  93.9187756  49.4075218  65.0720955  94.3675286  48.6785186  66.3207160
  99.1055858  48.7984657  75.8093982  99.0944499  48.4037455  74.9374486
  99.2676498  48.0650729  76.4027753 100.0622450  53.1656249  61.1519132
  99.4110430  53.7510330  60.7653146 100.8566813  53.6962444  61.2114170
  93.9878077  50.2545386  61.5506267  94.7608953  49.7074373  61.4119142
  94.3403476  51.1189636  61.7620728  96.7519326  48.9598617  71.3474526
  97.3482899  48.7354640  70.6331489  96.8094298  48.2183363  71.9499973
  96.3244355  46.4138052  59.1824717  96.5769875  45.8919574  58.4208180
  95.3868914  46.2504198  59.2851400 101.3687638  45.4173831  66.9899460
 102.1550727  44.9993254  66.6389877 101.6326342  46.3219923  67.1581108
 101.5397715  50.8546681  61.6888117 100.9043548  50.9281308  62.4009021
 101.2095121  51.4440280  61.0107196 106.7696065  45.3549064  67.8932438
 107.5021237  44.7848281  68.1270268 106.0135420  44.9670664  68.3338944
  96.0440644  48.3166158  61.3849092  95.9276902  47.6411062  62.0530176
  96.1542903  47.8298532  60.5681245  98.3872184  47.7776306  65.0895781
  98.0230392  47.2506926  65.8008702  99.2439300  47.3874775  64.9162266
 104.2921485  39.0670638  72.3527047 103.9604810  39.9366049  72.1288262
 103.6967098  38.7506922  73.0321077  98.0277671  42.8066205  60.0857129
  98.1952074  43.6746442  60.4527600  97.8374841  42.9693487  59.1618419
 100.7853005  51.2683184  71.7522960 100.4853728  52.1708223  71.6438767
 100.4404064  51.0015367  72.6044113  94.2365486  47.7196981  67.7859664
  93.3115983  47.5873195  67.9937356  94.4849899  48.4991200  68.2829606
 104.1850148  43.7865724  69.4320397 103.2767026  43.7181133  69.1379158
 104.1337744  44.2637669  70.2602222  98.0066892  45.2623863  61.0703796
  97.8866518  45.7080913  61.9089276  97.3119481  45.6109180  60.5117334
  95.7673784  58.0327504  64.7193927  95.6897814  58.9835330  64.7982408
  95.1635428  57.6873377  65.3768854  98.2591014  45.2055370  77.3755294
  97.4824348  45.7649290  77.3658159  98.8981577  45.6912153  77.8970164
 106.0511795  41.9882163  71.2098271 105.4086175  42.2814696  70.5638065
 105.5466723  41.8735083  72.0151468 103.7051958  45.7345336  61.8984130
 104.6169815  45.9672723  61.7231828 103.1961606  46.3182380  61.3359209
  96.5137387  48.0140823  76.9373261  97.2552071  48.5525867  76.6608085
  95.8074372  48.6407112  77.0944813 101.9892726  50.1569964  75.5345423
 102.3976082  49.7152374  74.7900055 101.2669988  49.5822591  75.7879616
  98.3423796  45.0942570  72.9078980  99.1884991  45.5181984  73.0513629
  98.2822434  44.4376195  73.6017543 102.3121541  50.7171154  69.2897712
 101.6830403  50.8816868  68.5873779 101.9247203  51.1312764  70.0608676
 106.1910773  51.6525592  66.6442075 105.5061811  52.0324494  66.0939109
 106.2754622  52.2620919  67.3774023 101.4923242  42.7546939  74.5660153
 101.2484173  43.5088999  74.0294429 101.7683172  43.1332286  75.4007400
 103.4461704  49.2985551  73.2437419 103.6578600  49.9417311  72.5671800
 103.3991453  48.4647868  72.7759349 101.0487933  41.9103372  70.1473991
 100.1872412  42.2084625  70.4390729 101.0750368  42.1273771  69.2155024
  97.8649503  50.4545562  66.5547797  98.3287848  50.7333265  65.7652419
  97.6006301  49.5529007  66.3720887  94.7573584  50.0017044  69.4927560
  95.3274941  50.4304312  68.8545044  95.3481696  49.7199629  70.1911746
  96.8018389  46.5768715  63.3637362  97.5042432  47.0289758  63.8311288
  96.4699017  45.9352534  63.9917255  95.2498750  45.1680471  77.7388571
  94.6197411  45.8496752  77.9723968  95.1434838  45.0563553  76.7941709
  90.5443723  44.8352267  68.6654495  89.7542777  45.0909796  68.1894606
  91.0354970  45.6500605  68.7706536 104.5607532  52.1757507  71.4159776
 105.3824976  51.7737694  71.1342458 104.5569935  52.0725741  72.3675892
  92.4958468  45.1996847  65.6237972  91.6989631  45.3115541  66.1421468
  92.2684060  45.5383499  64.7578863  98.3264136  51.7241550  73.5720487
  98.3908568  52.1861957  74.4078659  97.6175060  51.0938915  73.7002797
  98.0412153  53.3909657  63.4399467  97.9057828  54.2361193  63.8684315
  98.5821966  53.5928935  62.6765401  94.5279493  39.4701237  80.1013822
  94.1346439  38.9167436  80.7761467  95.3445633  39.7811816  80.4920340
  91.4941551  50.9085095  64.0127392  92.0066071  51.7028346  64.1632957
  92.1464264  50.2111386  63.9460994  97.4447454  40.8859116  77.6934079
  98.1857167  41.4866269  77.6138541  97.6765377  40.1436754  77.1352121
  99.6680630  54.0133224  77.5699809  99.2244484  53.2269602  77.2520714
 100.3297843  54.2012374  76.9043700  94.4267751  55.5429026  72.0960488
  94.9775176  55.4146089  71.3237482  93.5879227  55.8423915  71.7455380
 101.7661868  54.2936024  75.5981210 101.7480343  55.1144905  75.1061480
 102.6881788  54.1690099  75.8231352  98.2234922  51.8080153  76.4404719
  98.7563259  51.0468442  76.2104027  97.6949003  51.5153805  77.1828873
 101.3904617  36.9140219  71.9698361 101.0468886  37.8041861  71.8937471
 101.7583580  36.7241877  71.1067946  89.4590468  49.2373750  64.7886963
  90.2965690  49.6470758  64.5720670  89.6368735  48.2973192  64.7587157
 101.3554900  46.9048830  60.4770796 100.8401523  47.6753435  60.7159183
 101.0832208  46.2313967  61.1003857  98.9402011  41.7498531  65.5356034
  98.0843607  41.3605382  65.3561673  99.3528962  41.8290492  64.6755820
 100.4701157  39.2844874  69.9347594  99.9665953  39.2475010  69.1215399
 100.7631764  40.1937617  69.9944250  96.7144043  39.3683604  68.9413776
  97.5797040  39.1726413  68.5819665  96.7821552  39.1393956  69.8683132
 106.3289174  49.6581185  62.4123969 105.5518617  49.3192345  61.9679131
 107.0080655  49.6633808  61.7378934 101.1441203  44.7775923  62.3030577
 100.8391338  45.0922072  63.1540720 102.0971645  44.8557342  62.3457910
  99.5887635  50.9366146  63.9523531  99.0608996  50.2018905  63.6396768
  99.0875137  51.7140822  63.7063499 104.5680481  49.1315166  69.0690577
 103.9104155  49.8214428  69.1570706 105.3720880  49.5211598  69.4124563
  94.3206362  41.5985812  66.3130142  94.8950114  41.3760994  65.5803335
  94.9077345  41.6674507  67.0658744 103.3785939  47.4859539  67.1194519
 103.8917821  48.1189531  67.6216229 104.0287163  46.8860735  66.7537879
  94.6475949  43.6290273  60.3326028  93.8113262  43.9664960  60.6535302
  94.5080719  43.4939253  59.3953165  96.6229030  38.4727061  65.0405212
  95.9693442  38.1576078  64.4161827  96.5809504  37.8502801  65.7665035
  97.7340235  48.7546356  56.9558504  96.8267297  48.5235610  57.1549653
  98.2311267  47.9583975  57.1432485 100.6408314  57.4643863  59.8755190
  99.9670012  57.7675560  60.4840148 101.0274136  58.2672944  59.5260647
  99.8566770  44.9608995  69.3652859  98.9389332  45.1823942  69.2074547
 100.2726914  45.0355305  68.5064567 100.6401818  46.3600410  64.4955540
 101.3873637  46.8721807  64.1862662 100.9093408  46.0384463  65.3559933
  98.9128468  48.8558951  61.4782494  98.0039688  48.5717984  61.5754964
  98.9423552  49.2758030  60.6185801 104.1447736  52.4665540  65.2473662
 103.6910063  51.6256450  65.3038852 103.5141702  53.1026939  65.5848442
 103.0880655  43.3957526  66.4774329 102.3503412  42.8834913  66.8084572
 103.3407429  42.9557908  65.6657606 102.5880675  54.3042037  66.1823480
 102.8803649  54.8647094  65.4635845 103.0979295  54.5970598  66.9376639
 103.1892283  36.1733778  67.0716098 103.4951159  35.3131142  66.7842013
 103.9144887  36.7651399  66.8715092  89.4816639  46.5764465  65.4597696
  89.2841038  45.9833826  64.7348763  88.9263303  46.2716675  66.1773635
  97.4613362  46.4687572  67.5792289  97.5161972  45.5161408  67.5034766
  96.6504564  46.6247011  68.0633588  98.6104556  50.3967695  58.8170573
  98.1723986  49.6803554  58.3576210  99.3514997  50.6243809  58.2555664
  95.4005722  45.0864631  65.3382668  94.5873588  45.3858802  65.7447860
  95.8964716  44.6920320  66.0557150  97.5514300  55.0822388  67.2716933
  97.5090479  55.3083235  66.3425465  98.4676999  54.8485763  67.4202734
 100.9979934  45.5506456  74.1697562 101.3529322  45.7777929  75.0292028
 101.6452065  45.8824833  73.5474817 106.7277671  48.6724892  64.8746891
 106.5895569  48.8626488  63.9468080 106.3713890  49.4344274  65.3314942
  94.8919797  42.6582987  70.9543903  95.5319176  42.5171746  70.2566866
  94.0597328  42.3717500  70.5782505 106.7547050  50.7401419  69.8858163
 107.1883557  50.6476708  70.7341217 107.4678631  50.7158919  69.2478179
  95.6680101  51.9585417  67.0678896  96.4620699  51.4635737  66.8661471
  94.9571793  51.4303280  66.7046601 100.4874945  54.3403513  71.4191263
 100.5411968  54.9094449  72.1868979  99.6189727  54.5105398  71.0545300
  91.9762864  46.1028499  63.1438648  91.0460452  46.0412954  63.3608610
  92.0720336  45.5804452  62.3475290  91.8948413  42.6283312  65.7316890
  92.1555231  43.5428645  65.6226050  92.7165586  42.1607754  65.8813503
  93.3673339  44.0421069  72.9015714  94.0396392  43.8338431  72.2528363
  92.5403125  43.8443155  72.4620947 107.6162600  50.7825119  72.4191048
 107.8098490  51.6870930  72.6650323 107.5163218  50.3232538  73.2529633
  99.2698911  40.6683010  74.9181375  98.6226826  41.3672960  74.8245852
 100.0399926  41.1019154  75.2857624 102.6777709  50.9331862  77.9931929
 102.5263215  50.7042414  77.0762012 102.6682388  51.8902463  78.0063274
  99.4463045  48.5063775  72.9778195 100.3755105  48.6574934  72.8047162
  99.0254075  48.5947796  72.1226842  98.2451377  52.5314439  70.7476733
  98.1062463  52.1633224  71.6202671  97.4565973  53.0462079  70.5760690
  98.8399529  57.6323536  62.0902269  99.0151285  57.1611579  62.9047892
  98.1532317  58.2589302  62.3183530  99.7956592  51.9096042  68.1365570
  99.4606425  51.8696812  69.0323220  99.2960538  51.2440758  67.6635981
  93.7700836  47.3163672  73.6618152  93.6320634  46.5843911  74.2629691
  94.6805759  47.2272572  73.3802339 102.7315784  49.2552076  58.4102630
 102.1144954  48.5298904  58.3135683 102.2632272  50.0161437  58.0669704
  96.3983137  47.0283631  73.1501831  97.1082755  46.3876823  73.1088450
  96.3552445  47.2796526  74.0728012 104.3869915  53.9650985  76.0708410
 104.3282461  53.2810205  75.4038993 104.7889434  54.7069975  75.6189036
  95.1112071  44.0148849  74.9697471  94.5749428  43.5639588  75.6219067
  94.5228779  44.1494758  74.2267935  93.4060614  60.7812898  68.8642129
  93.6457212  61.4131423  69.5421148  92.5629811  60.4300938  69.1507489
  94.5214330  43.4737501  57.5323934  93.6443796  43.3526301  57.1686181
  94.9972083  42.6823579  57.2802823 104.3887323  51.9290569  74.3022390
 103.5014101  51.5916490  74.4248789 104.9585874  51.1973600  74.5391156
  97.9188476  56.5892021  71.2683633  97.8458647  57.3946992  71.7802938
  97.4765869  56.7883987  70.4431655  97.7078256  55.8263791  64.7786455
  96.9245778  56.3685471  64.8724679  98.4071001  56.3437771  65.1780696
 101.0174906  41.6358420  67.4220660 101.5143605  40.8828383  67.1021731
 100.2461887  41.6722737  66.8563870 108.8704663  47.3398786  69.0638952
 108.8594539  48.2223501  68.6932885 108.0022043  46.9870337  68.8693489
 100.3787160  56.4878855  73.4241792 101.0915132  57.1226320  73.3517693
  99.8877188  56.5842721  72.6081794 102.1004686  50.3930108  64.9959084
 101.1660965  50.5131570  64.8263788 102.2781355  49.4902574  64.7319094
  97.6009874  43.7775803  67.1492345  97.2307662  43.2246844  67.8373250
  98.0968967  43.1733937  66.5967345 105.4877238  46.2347427  65.5309118
 105.9537690  47.0675418  65.4569420 105.9384738  45.7692408  66.2354376
  95.4299073  54.2373298  74.2447363  96.1308533  54.8709781  74.3976757
  94.9594188  54.5788030  73.4843002 103.5553469  52.5791248  62.5295270
 103.8313313  52.4647843  63.4389144 102.6857968  52.1808733  62.4907443
 103.4593901  38.6028014  69.5700019 102.5456980  38.8332241  69.7382226
 103.8887002  38.6866458  70.4214052 103.2300359  46.7917906  72.0699913
 102.5771809  47.0393813  71.4152366 103.6080739  45.9782044  71.7362390
 100.1907533  56.8277599  66.1728083 100.3729927  56.0099255  66.6355836
 101.0140519  57.0445291  65.7352973 100.5249698  55.7545784  63.4343132
 101.0537465  55.2438239  62.8213294 100.7877918  55.4388314  64.2988665
  99.2787932  47.5337717  78.5565950  98.6028569  47.4331846  79.2268325
 100.1015566  47.3776931  79.0201947  93.8805446  56.8060901  66.1940908
  93.2115822  57.2907028  65.7104948  93.7418316  57.0530121  67.1084286
  98.0210715  58.8404644  72.7923566  98.5729023  59.0036266  73.5572651
  98.3616908  59.4309082  72.1203591  92.9975208  41.1879794  73.3945451
  93.0616535  42.0494625  72.9822849  92.9342328  40.5753796  72.6617809
  92.4727481  43.2602927  77.0418485  93.0999519  42.8780004  77.6556010
  91.6155400  43.0417129  77.4074178 102.8721589  53.6665902  78.6472221
 103.4161493  54.2795860  78.1527175 102.2908434  54.2245480  79.1639234
  89.2493023  45.0679356  62.9736840  89.5446465  44.1590034  62.9203894
  88.3481059  45.0467095  62.6517842 101.1579102  56.7886620  69.7787248
 101.0330242  55.9876360  69.2698194 101.8158193  57.2832813  69.2901218
  92.7787270  43.1435352  68.9564389  92.0573856  43.7571320  68.8171862
  93.5680526  43.6793117  68.8781035 103.2214011  54.5895640  71.4066798
 102.2744346  54.4700991  71.3345125 103.5696784  53.7018138  71.4893060
  95.5813584  40.4789779  75.2305040  96.1047986  40.7252075  75.9931350
  95.3625917  41.3109814  74.8108178  90.9780865  42.7493453  63.0976165
  90.6493571  41.8690832  62.9151271  91.3320236  42.6941122  63.9852554
 100.2260444  54.3848356  67.6071151 100.0785406  53.4565064  67.7878721
 101.0513937  54.4068447  67.1228226  94.0922688  43.0366423  63.4651643
  94.4318761  43.5652345  62.7430251  94.5394809  43.3746829  64.2410209
 103.8294566  55.2076915  68.6936023 104.7541113  55.0019776  68.5560475
 103.6609869  54.9593316  69.6025365  96.7866129  41.4203474  72.9154711
  96.4462949  40.6211287  73.3175391  96.0805135  41.7205185  72.3431544
  97.4382601  38.5052786  71.3682034  98.2608670  38.0313265  71.2460924
  97.6820664  39.2843270  71.8680720  96.0790835  41.5341045  61.6644936
  96.7999198  41.9122298  61.1608652  95.4556139  42.2529922  61.7679914
 100.2221958  42.2386194  62.6003268 100.4385573  43.1210832  62.2992096
  99.7416025  41.8472407  61.8708910  94.9621180  45.1971907  69.1774013
  94.8165760  45.5112210  70.0698294  94.4846383  45.8156807  68.6244911
  96.8217562  42.1874455  69.2254902  96.8079131  41.2915548  68.8887200
  97.5389991  42.1945119  69.8593188  98.6743693  42.6211795  71.2708030
  98.4161471  43.5428866  71.2692360  98.1428734  42.2242230  71.9608494
 103.6189882  55.7262582  64.0498115 103.7926759  55.1609005  63.2971967
 104.1118773  56.5263477  63.8677605  96.2254458  41.0688835  64.4942472
  96.3470370  40.1405482  64.6933360  95.9356501  41.0827521  63.5820788
  99.0945649  38.7543746  67.6309192  99.1167346  38.8183079  66.6761172
  99.5113708  37.9148254  67.8249698 109.4729273  48.4899005  65.6688415
 109.9160419  47.7406331  65.2707538 108.5955783  48.4809142  65.2862147
 104.6065054  55.0429347  61.1495013 105.3015959  55.6636039  61.3682328
 104.9488205  54.1924698  61.4247391 106.5056478  52.4929052  62.6782344
 107.0307802  52.8316325  61.9531664 106.4178830  51.5576068  62.4945479
  98.1676526  56.4063126  74.8072221  98.4763653  56.1612273  75.6794920
  98.9652008  56.6109764  74.3191091  98.1897138  58.5601036  67.0377597
  97.7502129  58.0677414  67.7310454  98.9405255  58.0174003  66.7969672
  95.6371010  54.1039045  69.1099899  95.0151020  53.4409750  68.8102127
  96.3075877  54.1300177  68.4273547  95.7095538  42.5820833  78.7032405
  95.7583693  43.4582955  78.3210174  96.2518052  42.0398226  78.1304048
 106.1950384  53.1261956  77.9833542 105.4045927  53.1086095  77.4438041
 105.9583738  53.6650250  78.7382579 106.3148259  49.9754422  75.2966270
 106.3646264  49.8104430  76.2381793 106.2062182  49.1081681  74.9064151
  95.1984517  52.6542968  62.5858359  95.3472638  53.3378432  61.9325032
  96.0050961  52.6348058  63.1007815 103.6052021  45.9585350  76.6125577
 104.5061884  45.8191815  76.3209575 103.6799996  46.1239805  77.5523755
  97.9394826  43.3352205  75.4578763  97.0698136  43.6285771  75.1861352
  98.1754307  43.9192650  76.1786027 107.8166455  52.3951364  75.5408292
 107.5251264  52.7581344  76.3771753 107.2038587  51.6818372  75.3621624
 109.0162138  49.9604244  68.0610862 109.8509029  50.3994048  68.2248423
 109.1521267  49.4842897  67.2419108 106.0653644  47.5183978  74.0088350
 106.5407765  47.7111625  73.2007201 105.1419209  47.5743164  73.7631734
  92.9537150  48.6808146  63.5919428  92.7083192  47.7770476  63.7899638
  93.1233065  48.6825296  62.6498906 100.6433860  39.5531822  72.9744184
 101.1615804  40.2892849  72.6490672 100.2888993  39.8595815  73.8090943
  92.2232798  44.4136503  61.0905590  91.5302043  44.4880858  60.4345626
  91.9784550  43.6496847  61.6127107 100.8946454  35.9732105  68.4945080
 101.1748208  35.3055294  69.1205507 101.6797061  36.1661200  67.9819744
  98.6979923  55.1491098  60.0570107  98.1253890  55.7681286  59.6040579
  99.2712717  55.6990460  60.5910029 104.7655313  44.3949739  72.2416656
 105.7172736  44.4947836  72.2628880 104.5958763  43.6028007  72.7514740
 102.7869692  41.4805322  72.4276057 102.1919624  41.7610334  71.7322545
 102.5019389  41.9699223  73.1992798 101.9177183  55.4328249  61.1878689
 102.8507856  55.3673810  61.3911565 101.8300395  56.2684515  60.7293222
 104.5465199  54.7494119  58.1482637 104.4678831  54.4153983  59.0418395
 105.3674866  55.2415887  58.1474109 107.2443391  47.6155858  71.3558955
 107.2119711  46.6771859  71.5418639 107.8544014  47.6939895  70.6224780
  99.0826721  46.4851911  57.3986159 100.0285826  46.3558119  57.4674577
  98.7040966  45.7466573  57.8755587 107.3937879  44.4066902  71.4017238
 106.8776928  43.6225358  71.2147167 108.2777828  44.0785618  71.5663758
 105.0548606  38.1507917  67.3613051 104.8573427  37.8423005  68.2456383
 105.6648312  38.8769556  67.4910981  98.9665414  50.5369657  78.8586816
  99.8868423  50.7148256  79.0526863  98.9314997  49.5925703  78.7066516
  97.2669639  44.4101888  57.3341045  96.3601094  44.1135000  57.4103758
  97.5445620  44.1131706  56.4675331  98.8831704  38.9538777  63.4885286
  98.0732433  38.6085862  63.8640532  99.5716121  38.6446321  64.0772897
 100.8122253  38.0316824  65.1109582 101.3653291  38.4512278  65.7699606
 101.0492339  37.1052572  65.1532538  96.8355352  44.0203898  80.8912346
  96.7352079  44.9698255  80.8224437  96.6176894  43.6922137  80.0188416
  96.0368423  41.2688823  57.4753024  96.8987587  41.5943721  57.7348841
  96.2218767  40.4820319  56.9626090 104.1901060  40.1417349  64.6188247
 103.6099729  40.8002153  64.2366299 103.9236992  39.3194694  64.2075664
 102.6404626  39.5422407  66.8209567 103.1404404  39.6538942  66.0123886
 103.2840234  39.2383460  67.4610375  96.6986622  47.4501037  79.7077408
  96.2153704  48.2501397  79.9141297  96.7847561  47.4608981  78.7544852
 102.9725938  42.3017440  63.6744595 102.0851793  42.5867090  63.4564790
 103.3879927  42.1411203  62.8271872 106.3240474  42.3263961  67.3898934
 107.1000864  42.8160413  67.6623551 105.5988608  42.7522015  67.8470804
 108.7613032  43.0391580  68.4472875 109.3557523  42.7987316  67.7366183
 108.8339616  42.3198710  69.0746411 102.1169151  52.0662114  57.7692615
 102.8205001  52.2712117  58.3850271 101.3931800  52.6338876  58.0341698
 102.9466961  47.8171976  63.8894885 102.8902163  48.2740527  63.0502518
 103.4995304  47.0562660  63.7117728 106.7571767  43.6061707  64.7145005
 106.5008702  43.2058343  65.5453212 106.1324635  44.3205501  64.5895144
  94.1379314  57.7794508  68.9734482  94.0211698  58.7239940  68.8713173
  93.3171760  57.4768069  69.3620282 104.0255849  52.5044644  59.8191075
 104.8601452  52.0725842  59.6368550 103.8640191  52.3326657  60.7467969
 103.6801741  49.0076757  61.1847414 103.6250545  48.8421028  60.2435858
 103.0547796  49.7152790  61.3409604 100.9947648  51.3125669  80.5100977
 101.8638808  51.4866321  80.1487612 100.5154399  52.1320086  80.3876706
  96.9897866  38.5084866  60.7632733  96.9776536  39.4526706  60.9201004
  97.8821288  38.3255011  60.4692194  95.1633828  58.4322770  72.1890411
  96.0661075  58.4646380  72.5056906  94.9371198  57.5023221  72.2036747
  96.9187430  57.1853756  68.8500489  95.9683061  57.1855618  68.7364862
  97.2219916  56.4386491  68.3336524 100.8049986  35.1027642  65.0178670
 100.0382381  34.5486129  65.1635352 101.2160691  35.1749511  65.8792821
  92.8091747  41.3912438  79.1083851  93.6723208  41.0349243  79.3187175
  92.2357157  41.0526333  79.7959255 109.4629830  62.9741723  69.8507776
 109.1248341  62.8582787  68.9628311 110.3319598  62.5732888  69.8308783
 105.3216646  64.8277199  65.8404667 104.7581511  64.7367136  65.0720955
 105.2069041  64.0077104  66.3207160 109.9449613  64.1276574  75.8093982
 109.9338254  63.7329373  74.9374486 110.1070252  63.3942647  76.4027753
 102.8681078  66.3228391  68.6788888 103.6602369  65.9819215  68.2635187
 103.1077728  66.4323366  69.5991041 104.8271831  65.5837304  61.5506267
 105.6002707  65.0366291  61.4119142 105.1797230  66.4481553  61.7620728
 106.6656874  66.9113686  74.7573166 106.3746740  67.8159317  74.6419832
 107.3013858  66.9530214  75.4717236 107.5913081  64.2890535  71.3474526
 108.1876653  64.0646557  70.6331489 107.6488052  63.5475280  71.9499973
 107.1638109  61.7429970  59.1824717 107.4163630  61.2211491  58.4208180
 106.2262668  61.5796116  59.2851400 106.8834398  63.6458076  61.3849092
 106.7670656  62.9702979  62.0530176 106.9936658  63.1590450  60.5681245
 109.2265939  63.1068223  65.0895781 108.8624146  62.5798844  65.8008702
 110.0833055  62.7166692  64.9162266 108.8671426  58.1358123  60.0857129
 109.0345828  59.0038359  60.4527600 108.6768595  58.2985405  59.1618419
 105.0759241  63.0488899  67.7859664 104.1509737  62.9165113  67.9937356
 105.3243654  63.8283118  68.2829606 108.8460647  60.5915780  61.0703796
 108.7260272  61.0372831  61.9089276 108.1513235  60.9401098  60.5117334
 102.4368052  62.6922172  68.6203453 102.5660433  62.9456651  69.5342865
 101.7565503  63.2849880  68.3008108 106.6067539  73.3619422  64.7193927
 106.5291569  74.3127247  64.7982408 106.0029183  73.0165295  65.3768854
 109.0984769  60.5347288  77.3755294 108.3218103  61.0941208  77.3658159
 109.7375332  61.0204071  77.8970164 107.3531141  63.3432741  76.9373261
 108.0945825  63.8817785  76.6608085 106.6468126  63.9699030  77.0944813
 109.1817551  60.4234488  72.9078980 110.0278746  60.8473902  73.0513629
 109.1216188  59.7668112  73.6017543 108.7043257  65.7837480  66.5547797
 109.1681603  66.0625183  65.7652419 108.4400055  64.8820925  66.3720887
 105.5967338  65.3308962  69.4927560 106.1668695  65.7596230  68.8545044
 106.1875450  65.0491546  70.1911746 107.6412143  61.9060632  63.3637362
 108.3436187  62.3581676  63.8311288 107.3092772  61.2644451  63.9917255
 106.0892505  60.4972389  77.7388571 105.4591165  61.1788670  77.9723968
 105.9828593  60.3855471  76.7941709 101.3837477  60.1644185  68.6654495
 100.5936531  60.4201714  68.1894606 101.8748725  60.9792523  68.7706536
 103.3352223  60.5288764  65.6237972 102.5383386  60.6407459  66.1421468
 103.1077815  60.8675417  64.7578863 109.1657890  67.0533468  73.5720487
 109.2302323  67.5153875  74.4078659 108.4568814  66.4230833  73.7002797
  99.6675180  60.4174676  71.0969486  99.9183219  61.3021685  71.3627062
 100.2034729  60.2379277  70.3244578 108.8805908  68.7201575  63.4399467
 108.7451583  69.5653111  63.8684315 109.4215720  68.9220853  62.6765401
 105.3673247  54.7993155  80.1013822 104.9740193  54.2459354  80.7761467
 106.1839388  55.1103733  80.4920340 102.3335305  66.2377013  64.0127392
 102.8459826  67.0320263  64.1632957 102.9858018  65.5403304  63.9460994
 104.1430190  69.3542769  66.0950145 104.3196818  70.2760734  65.9071129
 104.9387023  69.0401189  66.5244525 108.2841208  56.2151034  77.6934079
 109.0250922  56.8158187  77.6138541 108.5159131  55.4728672  77.1352121
 103.4282546  61.4007401  75.9712309 103.3136062  60.4992659  76.2719407
 102.5727064  61.6471098  75.6197125 105.2661505  70.8720943  72.0960488
 105.8168931  70.7438007  71.3237482 104.4272981  71.1715832  71.7455380
 109.0628676  67.1372071  76.4404719 109.5957013  66.3760359  76.2104027
 108.5342758  66.8445723  77.1828873 100.2984222  64.5665667  64.7886963
 101.1359444  64.9762676  64.5720670 100.4762490  63.6265110  64.7587157
 109.7795765  57.0790449  65.5356034 108.9237361  56.6897299  65.3561673
 110.1922717  57.1582410  64.6755820 107.5537798  54.6975522  68.9413776
 108.4190794  54.5018331  68.5819665 107.6215307  54.4685874  69.8683132
 110.4281389  66.2658064  63.9523531 109.9002751  65.5310823  63.6396768
 109.9268892  67.0432740  63.7063499 105.1600117  56.9277730  66.3130142
 105.7343869  56.7052911  65.5803335 105.7471099  56.9966424  67.0658744
 105.4869704  58.9582191  60.3326028 104.6507016  59.2956877  60.6535302
 105.3474474  58.8231171  59.3953165 107.4622784  53.8018979  65.0405212
 106.8087197  53.4867996  64.4161827 107.4203259  53.1794719  65.7665035
 108.5733989  64.0838274  56.9558504 107.6661051  63.8527527  57.1549653
 109.0705021  63.2875893  57.1432485 109.7522223  64.1850869  61.4782494
 108.8433442  63.9009901  61.5754964 109.7817307  64.6049947  60.6185801
 100.3210393  61.9056383  65.4597696 100.1234793  61.3125743  64.7348763
  99.7657057  61.6008593  66.1773635 108.3007117  61.7979489  67.5792289
 108.3555727  60.8453326  67.5034766 107.4898319  61.9538928  68.0633588
 109.4498311  65.7259612  58.8170573 109.0117740  65.0095471  58.3576210
 110.1908751  65.9535727  58.2555664 106.2399477  60.4156549  65.3382668
 105.4267342  60.7150720  65.7447860 106.7358471  60.0212238  66.0557150
 108.3908055  70.4114306  67.2716933 108.3484233  70.6375152  66.3425465
 109.3070753  70.1777680  67.4202734 105.7313551  57.9874904  70.9543903
 106.3712931  57.8463664  70.2566866 104.8991082  57.7009418  70.5782505
 106.5073855  67.2877335  67.0678896 107.3014454  66.7927655  66.8661471
 105.7965548  66.7595198  66.7046601 102.8156619  61.4320417  63.1438648
 101.8854207  61.3704872  63.3608610 102.9114091  60.9096369  62.3475290
 102.7342168  57.9575229  65.7316890 102.9948985  58.8720563  65.6226050
 103.5559340  57.4899672  65.8813503 104.2067093  59.3712987  72.9015714
 104.8790147  59.1630349  72.2528363 103.3796880  59.1735073  72.4620947
 109.0845131  67.8606357  70.7476733 108.9456217  67.4925141  71.6202671
 108.2959728  68.3753996  70.5760690 109.6793283  72.9615453  62.0902269
 109.8545039  72.4903497  62.9047892 108.9926071  73.5881220  62.3183530
 104.6094590  62.6455590  73.6618152 104.4714388  61.9135828  74.2629691
 105.5199514  62.5564490  73.3802339 107.2376891  62.3575549  73.1501831
 107.9476510  61.7168741  73.1088450 107.1946199  62.6088444  74.0728012
 105.9505825  59.3440767  74.9697471 105.4143182  58.8931505  75.6219067
 105.3622534  59.4786676  74.2267935 104.2454369  76.1104816  68.8642129
 104.4850967  76.7423340  69.5421148 103.4023565  75.7592856  69.1507489
 105.3608084  58.8029418  57.5323934 104.4837550  58.6818219  57.1686181
 105.8365837  58.0115497  57.2802823  96.8810224  63.5906578  67.6265442
  97.5681264  63.2768308  67.0386457  96.7258353  64.4947943  67.3532693
 101.6844946  58.4796775  72.0550465 101.6003135  57.8722444  71.3200875
 100.8627653  58.9705793  72.0559962 108.7582231  71.9183939  71.2683633
 108.6852402  72.7238910  71.7802938 108.3159624  72.1175904  70.4431655
 108.5472010  71.1555709  64.7786455 107.7639532  71.6977389  64.8724679
 109.2464755  71.6729688  65.1780696 108.4403629  59.1067721  67.1492345
 108.0701417  58.5538761  67.8373250 108.9362721  58.5025855  66.5967345
 106.2692828  69.5665216  74.2447363 106.9702287  70.2001699  74.3976757
 105.7987943  69.9079948  73.4843002 101.8660546  69.1001571  71.1778465
 102.4513982  68.3545259  71.3106370 101.6685384  69.4105528  72.0615129
 104.7199201  72.1352819  66.1940908 104.0509576  72.6198946  65.7104948
 104.5812071  72.3822039  67.1084286  96.4578200  61.6707171  69.8982909
  96.4962300  61.1370762  70.6920027  95.9518493  61.1442377  69.2793886
 108.8604469  74.1696562  72.7923566 109.4122777  74.3328184  73.5572651
 109.2010663  74.7601000  72.1203591 103.8368963  56.5171712  73.3945451
 103.9010289  57.3786543  72.9822849 103.7736083  55.9045713  72.6617809
 103.3121235  58.5894844  77.0418485 103.9393274  58.2071922  77.6556010
 102.4549154  58.3709046  77.4074178 100.0886778  60.3971273  62.9736840
 100.3840219  59.4881952  62.9203894  99.1874814  60.3759013  62.6517842
 103.6181025  58.4727270  68.9564389 102.8967611  59.0863238  68.8171862
 104.4074281  59.0085035  68.8781035 106.4207338  55.8081697  75.2305040
 106.9441740  56.0543993  75.9931350 106.2019672  56.6401731  74.8108178
 101.8174620  58.0785371  63.0976165 101.4887326  57.1982750  62.9151271
 102.1713990  58.0233040  63.9852554 104.9316443  58.3658341  63.4651643
 105.2712515  58.8944262  62.7430251 105.3788563  58.7038747  64.2410209
 107.6259883  56.7495392  72.9154711 107.2856704  55.9503205  73.3175391
 106.9198890  57.0497103  72.3431544 108.2776355  53.8344704  71.3682034
 109.1002425  53.3605182  71.2460924 108.5214419  54.6135188  71.8680720
 106.9184590  56.8632963  61.6644936 107.6392952  57.2414215  61.1608652
 106.2949894  57.5821839  61.7679914 105.8014934  60.5263825  69.1774013
 105.6559515  60.8404128  70.0698294 105.3240138  61.1448725  68.6244911
 107.6611317  57.5166373  69.2254902 107.6472886  56.6207466  68.8887200
 108.3783745  57.5237036  69.8593188 109.5137448  57.9503713  71.2708030
 109.2555225  58.8720784  71.2692360 108.9822488  57.5534147  71.9608494
 100.2760596  63.0669169  72.1161674  99.7314064  63.8428977  72.2481948
 101.1539946  63.4139974  71.9580795 107.0648213  56.3980753  64.4942472
 107.1864124  55.4697399  64.6933360 106.7750255  56.4119439  63.5820788
 109.9339403  54.0835663  67.6309192 109.9561100  54.1474997  66.6761172
 110.3507462  53.2440172  67.8249698 101.0626618  62.1939065  75.0091831
 100.3208354  62.3421701  75.5956461 100.7419362  62.4547331  74.1458580
 109.0070281  71.7355044  74.8072221 109.3157407  71.4904190  75.6794920
 109.8045763  71.9401682  74.3191091 109.0290893  73.8892953  67.0377597
 108.5895883  73.3969332  67.7310454 109.7799010  73.3465921  66.7969672
 101.5083232  70.0804494  67.0402225 102.3341252  69.7808266  66.6600869
 101.1577284  69.3112117  67.4892014 106.4764765  69.4330962  69.1099899
 105.8544774  68.7701667  68.8102127 107.1469632  69.4592094  68.4273547
  99.7091837  67.9990821  67.9991159  98.8723745  67.5712995  67.8175160
  99.6815482  68.1923264  68.9361950 106.5489292  57.9112750  78.7032405
 106.5977448  58.7874873  78.3210174 107.0911807  57.3690143  78.1304048
 106.0378272  67.9834886  62.5858359 106.1866392  68.6670350  61.9325032
 106.8444715  67.9639976  63.1007815 108.7788581  58.6644123  75.4578763
 107.9091890  58.9577689  75.1861352 109.0148061  59.2484568  76.1786027
 103.7930905  64.0100063  63.5919428 103.5476947  63.1062393  63.7899638
 103.9626819  64.0117214  62.6498906 103.0626552  59.7428421  61.0905590
 102.3695797  59.8172776  60.4345626 102.8178304  58.9788765  61.6127107
 109.5373677  70.4783016  60.0570107 108.9647644  71.0973203  59.6040579
 110.1106471  71.0282378  60.5910029 108.1063393  59.7393805  57.3341045
 107.1994848  59.4426918  57.4103758 108.3839374  59.4423623  56.4675331
  99.0241333  61.0600169  67.7840091  98.7044118  60.2065477  67.4914465
  98.4774762  61.2748747  68.5398058 102.8021241  63.7762610  71.5009597
 103.0207251  64.7079717  71.5197631 103.2147015  63.4170584  72.2864401
 109.7225459  54.2830695  63.4885286 108.9126187  53.9377780  63.8640532
 110.4109876  53.9738239  64.0772897 107.6749106  59.3495815  80.8912346
 107.5745833  60.2990172  80.8224437 107.4570648  59.0214054  80.0188416
 106.8762178  56.5980740  57.4753024 107.7381342  56.9235639  57.7348841
 107.0612522  55.8112236  56.9626090  98.8929593  64.6803080  69.7533213
  98.1993065  64.2657033  69.2403167  99.6402584  64.7223617  69.1566631
 107.5380376  62.7792954  79.7077408 107.0547458  63.5793314  79.9141297
 107.6241315  62.7900899  78.7544852 100.8066336  64.6121334  67.6299227
 100.7837024  64.7109021  66.6781110 101.1166972  65.4586485  67.9516394
 103.4653714  66.6697489  71.7445842 104.4196967  66.6381431  71.6775773
 103.2666237  66.2088113  72.5596068 104.0553096  65.2398605  74.3116639
 104.8745985  65.7342684  74.3351477 104.3289904  64.3230573  74.2834207
 101.8203943  72.2117108  68.7616040 101.6858411  71.4517509  68.1954038
 101.4036005  72.9358008  68.2944829 104.9773068  73.1086425  68.9734482
 104.8605453  74.0531858  68.8713173 104.1565515  72.8059987  69.3620282
  99.3088010  59.5736739  75.0108837  99.9546874  59.0635693  75.4996062
  99.1005161  60.3105421  75.5852262 107.8291621  53.8376784  60.7632733
 107.8170290  54.7818623  60.9201004 108.7215043  53.6546929  60.4692194
 106.0027583  73.7614687  72.1890411 106.9054829  73.7938298  72.5056906
 105.7764953  72.8315138  72.2036747 107.7581185  72.5145674  68.8500489
 106.8076816  72.5147536  68.7364862 108.0613671  71.7678409  68.3336524
 103.6485501  56.7204356  79.1083851 104.5116963  56.3641161  79.3187175
 103.0750912  56.3818251  79.7959255 107.7203979  78.9198496  67.6265442
 108.4075019  78.6060226  67.0386457 107.5652107  79.8239860  67.3532693
 107.2971955  76.9999089  69.8982909 107.3356054  76.4662680  70.6920027
 106.7912248  76.4734295  69.2793886 109.8635088  76.3892086  67.7840091
 109.5437872  75.5357395  67.4914465 109.3168516  76.6040665  68.5398058
 109.7323348  80.0094998  69.7533213 109.0386819  79.5948951  69.2403167
 110.4796339  80.0515534  69.1566631  74.0886277   4.3805792  51.4439234
  74.0110306   5.3313617  51.5227715  73.4847920   4.0351664  52.1014160
  71.7273106   7.1291186  55.5887436  71.9669705   7.7609710  56.2666455
  70.8842303   6.7779226  55.8752795  72.2017939   3.1539188  52.9186215
  71.5328314   3.6385316  52.4350255  72.0630808   3.4008409  53.8329593
  76.3423207   5.1882932  59.5168873  76.8941515   5.3514553  60.2817958
  76.6829401   5.7787369  58.8448898  69.3022680   3.2303478  55.4861346
  69.1677148   2.4703879  54.9199344  68.8854743   3.9544378  55.0190135
  72.4591806   4.1272795  55.6979789  72.3424190   5.0718228  55.5958479
  71.6384253   3.8246357  56.0865588  73.4846320   4.7801057  58.9135717
  74.3873567   4.8124667  59.2302212  73.2583690   3.8501508  58.9282053
  87.7842322   9.3220010  56.5753083  87.4460834   9.2061075  55.6873618
  88.6532090   8.9211175  56.5554089  83.6429138  11.1755486  52.5649974
  83.0794003  11.0845423  51.7966262  83.5281533  10.3555391  53.0452467
  88.2662105  10.4754862  62.5339289  88.2550746  10.0807660  61.6619792
  88.4282745   9.7420934  63.1273060  81.1893570  12.6706678  55.4034194
  81.9814862  12.3297503  54.9880494  81.4290220  12.7801653  56.3236348
  89.2228697  14.8426454  47.8764439  88.5716676  15.4280535  47.4898453
  90.0173059  15.3732649  47.9359476  83.1484324  11.9315591  48.2751573
  83.9215200  11.3844578  48.1364449  83.5009723  12.7959841  48.4866035
  84.9869366  13.2591974  61.4818473  84.6959232  14.1637604  61.3665139
  85.6226351  13.3008501  62.1962542  85.9125573  10.6368822  58.0719832
  86.5089145  10.4124844  57.3576795  85.9700545   9.8953568  58.6745280
  90.7003962  12.5316886  48.4133423  90.0649795  12.6051513  49.1254328
  90.3701368  13.1210485  47.7352502  85.2046890   9.9936363  48.1094398
  85.0883148   9.3181267  48.7775482  85.3149150   9.5068737  47.2926551
  87.5478431   9.4546510  51.8141087  87.1836638   8.9277131  52.5254009
  88.4045547   9.0644979  51.6407573  89.9459251  12.9453389  58.4768266
  89.6459974  13.8478428  58.3684074  89.6010311  12.6785572  59.3289419
  83.3971733   9.3967186  54.5104971  82.4722229   9.2643400  54.7182662
  83.6456146  10.1761405  55.0074913  80.7580544   9.0400459  55.3448760
  80.8872925   9.2934938  56.2588171  80.0777995   9.6328167  55.0253415
  84.9280031  19.7097709  51.4439234  84.8504061  20.6605534  51.5227715
  84.3241675  19.3643582  52.1014160  85.6743633   9.6911028  63.6618568
  86.4158318  10.2296072  63.3853391  84.9680619  10.3177317  63.8190120
  91.1498973  11.8340169  62.2590729  91.5582329  11.3922579  61.5145362
  90.4276234  11.2592796  62.5124922  91.4727788  12.3941359  56.0143018
  90.8436650  12.5587073  55.3119086  91.0853450  12.8082969  56.7853982
  95.3517019  13.3295797  53.3687382  94.6668058  13.7094698  52.8184415
  95.4360869  13.9391124  54.1019330  87.0255749  12.1315767  53.2793103
  87.4894095  12.4103470  52.4897726  86.7612548  11.2299212  53.0966194
  83.9179830  11.6787249  56.2172867  84.4881188  12.1074517  55.5790351
  84.5087942  11.3969834  56.9157052  79.7049969   6.5122472  55.3899802
  78.9149023   6.7680001  54.9139913  80.1961217   7.3270810  55.4951843
  93.7213779  13.8527712  58.1405083  94.5431223  13.4507899  57.8587765
  93.7176182  13.7495946  59.0921199  81.6564715   6.8767052  52.3483279
  80.8595878   6.9885746  52.8666774  81.4290307   7.2153704  51.4824169
  87.4870382  13.4011755  60.2965793  87.5514815  13.8632162  61.1323965
  86.7781306  12.7709120  60.4248103  77.9887672   6.7652963  57.8214793
  78.2395711   7.6499973  58.0872369  78.5247221   6.5857564  57.0489885
  87.2018400  15.0679862  50.1644774  87.0664075  15.9131398  50.5929622
  87.7428213  15.2699140  49.4010708  80.6547798  12.5855300  50.7372699
  81.1672318  13.3798551  50.8878263  81.3070510  11.8881591  50.6706300
  82.4642682  15.7021057  52.8195452  82.6409311  16.6239021  52.6316436
  83.2599516  15.3879476  53.2489832  81.7495039   7.7485689  62.6957615
  81.6348554   6.8470946  62.9964714  80.8939556   7.9949385  62.3442432
  88.8286876  15.6903429  64.2945116  88.3850731  14.9039807  63.9766020
  89.4904090  15.8782579  63.6289007  83.5873998  17.2199230  58.8205794
  84.1381423  17.0916294  58.0482788  82.7485474  17.5194119  58.4700687
  90.9268115  15.9706229  62.3226517  90.9086590  16.7915110  61.8306786
  91.8488035  15.8460304  62.5476658  87.3841169  13.4850358  63.1650025
  87.9169506  12.7238646  62.9349333  86.8555250  13.1924010  63.9074180
  78.6196714  10.9143955  51.5132269  79.4571936  11.3240963  51.2965977
  78.7974982   9.9743397  51.4832463  88.7493881  12.6136351  50.6768837
  88.2215243  11.8789110  50.3642075  88.2481384  13.3911027  50.4308806
  93.7286727  10.8085371  55.7935884  93.0710402  11.4984633  55.8816012
  94.5327127  11.1981803  56.1369870  86.8946482  10.4316561  43.6803810
  85.9873543  10.2005814  43.8794959  87.3917514   9.6354180  43.8677792
  89.8014560  19.1414068  46.6000497  89.1276259  19.4445765  47.2085454
  90.1880382  19.9443149  46.2505954  88.0734715  10.5329156  48.2027801
  87.1645934  10.2488189  48.3000270  88.1029799  10.9528234  47.3431107
  93.3053982  14.1435745  51.9718968  92.8516310  13.3026655  52.0284159
  92.6747949  14.7797144  52.3093748  91.7486922  15.9812242  52.9068786
  92.0409896  16.5417299  52.1881152  92.2585542  16.2740803  53.6621945
  78.6422885   8.2534670  52.1843003  78.4447285   7.6604031  51.4594069
  78.0869549   7.9486880  52.9018942  87.7710803  12.0737900  45.5415879
  87.3330233  11.3573758  45.0821516  88.5121244  12.3014014  44.9800971
  86.7120547  16.7592593  53.9962239  86.6696726  16.9853439  53.0670771
  87.6283246  16.5255968  54.1448041  95.9153297  12.4171624  56.6103469
  96.3489804  12.3246913  57.4586523  96.6284878  12.3929124  55.9723485
  84.8286348  13.6355622  53.7924202  85.6226946  13.1405942  53.5906777
  84.1178040  13.1073485  53.4291908  89.6481192  16.0173718  58.1436570
  89.7018214  16.5864654  58.9114286  88.7795973  16.1875603  57.7790607
  81.1369111   7.7798704  49.8683955  80.2066699   7.7183159  50.0853917
  81.2326583   7.2574657  49.0720596  96.7768847  12.4595324  59.1436355
  96.9704737  13.3641135  59.3895630  96.6769465  12.0002743  59.9774940
  91.8383955  12.6102067  64.7177235  91.6869462  12.3812619  63.8007319
  91.8288635  13.5672668  64.7308580  88.6069292  10.1833980  59.7023502
  89.5361352  10.3345139  59.5292469  88.1860322  10.2718001  58.8472148
  87.4057624  14.2084644  57.4722039  87.2668709  13.8403429  58.3447977
  86.6172220  14.7232284  57.3005997  88.0005776  19.3093741  48.8147576
  88.1757531  18.8381784  49.6293198  87.3138564  19.9359507  49.0428837
  88.9562839  13.5866247  54.8610877  88.6212671  13.5467017  55.7568527
  88.4566784  12.9210963  54.3881287  82.9307083   8.9933877  60.3863458
  82.7926881   8.2614116  60.9874997  83.8412006   8.9042777  60.1047646
  91.8922030  10.9322281  45.1347937  91.2751201  10.2069109  45.0380989
  91.4238519  11.6931641  44.7915011  85.5589383   8.7053836  59.8747138
  86.2689002   8.0647028  59.8333756  85.5158692   8.9566731  60.7973319
  93.5476162  15.6421190  62.7953717  93.4888708  14.9580410  62.1284300
  93.9495680  16.3840180  62.3434343  82.5666861  22.4583103  55.5887436
  82.8063459  23.0901628  56.2666455  81.7236057  22.1071143  55.8752795
  93.5493569  13.6060773  61.0267697  92.6620348  13.2686695  61.1494096
  94.1192120  12.8743805  61.2636462  75.2022716   9.9384865  54.3510748
  75.8893756   9.6246595  53.7631763  75.0470845  10.8426230  54.0778000
  87.0794723  18.2662226  57.9928940  87.0064894  19.0717197  58.5048245
  86.6372116  18.4654192  57.1676961  86.8684502  17.5033996  51.5031762
  86.0852024  18.0455676  51.5969986  87.5677248  18.0207975  51.9026003
  89.5393406  18.1649060  60.1487099  90.2521378  18.7996525  60.0763000
  89.0483435  18.2612926  59.3327100  91.2610933  12.0700313  51.7204390
  90.3267212  12.1901775  51.5509095  91.4387602  11.1672779  51.4564400
  84.5905320  15.9143503  60.9692669  85.2914779  16.5479986  61.1222064
  84.1200435  16.2558235  60.2088309  92.7159716  14.2561453  49.2540576
  92.9919560  14.1418048  50.1634451  91.8464214  13.8578938  49.2152750
  89.3513780  18.5047804  52.8973390  89.5336174  17.6869460  53.3601142
  90.1746766  18.7215496  52.4598280  89.6855945  17.4315989  50.1588439
  90.2143712  16.9208444  49.5458601  89.9484165  17.1158519  51.0233972
  80.1873038  15.4479858  57.9023772  80.7726475  14.7023546  58.0351676
  79.9897876  15.7583815  58.7860436  83.0411693  18.4831106  52.9186215
  82.3722068  18.9677233  52.4350255  82.9024563  18.7300326  53.8329593
  74.7790693   8.0185459  56.6228215  74.8174792   7.4849049  57.4165333
  74.2730985   7.4920664  56.0039192  87.1816962  20.5174849  59.5168873
  87.7335270  20.6806471  60.2817958  87.5223155  21.1079287  58.8448898
  92.0327836  15.3436107  65.3717527  92.5767740  15.9566065  64.8772482
  91.4514681  15.9015685  65.8884540  78.4099270   6.7449561  49.6982147
  78.7052711   5.8360239  49.6449200  77.5087306   6.7237300  49.3763149
  90.3185349  18.4656825  56.5032555  90.1936488  17.6646565  55.9943501
  90.9764440  18.9603018  56.0146525  92.3820257  16.2665845  58.1312105
  91.4350593  16.1471196  58.0590432  92.7303030  15.3788343  58.2138367
  89.3866691  16.0618561  54.3316457  89.2391653  15.1335269  54.5124027
  90.2120184  16.0838652  53.8473533  92.9900812  16.8847120  55.4181330
  93.9147360  16.6789981  55.2805781  92.8216116  16.6363521  56.3270672
  92.7796129  17.4032787  50.7743422  92.9533006  16.8379210  50.0217274
  93.2725020  18.2033682  50.5922912  78.5973089   9.4147456  58.8406980
  78.0526557  10.1907264  58.9727255  79.4752438   9.7618261  58.6826102
  93.7671301  16.7199552  47.8740320  94.4622206  17.3406244  48.0927634
  94.1094451  15.8694903  48.1492698  79.3839110   8.5417353  61.7337137
  78.6420846   8.6899988  62.3201768  79.0631855   8.8025618  60.8703887
  95.6662724  14.1699257  49.4027651  96.1914048  14.5086530  48.6776971
  95.5785077  13.2346273  49.2190785  87.3282773  18.0833331  61.5317527
  87.6369899  17.8382478  62.4040227  88.1258255  18.2879969  61.0436397
  87.3503385  20.2371241  53.7622904  86.9108375  19.7447619  54.4555761
  88.1011502  19.6944208  53.5214979  79.8295724  16.4282781  53.7647532
  80.6553744  16.1286553  53.3846175  79.4789776  15.6590404  54.2137321
  84.7977257  15.7809250  55.8345205  84.1757267  15.1179955  55.5347433
  85.4682124  15.8070381  55.1518853  78.0304329  14.3469108  54.7236465
  77.1936237  13.9191282  54.5420467  78.0027975  14.5401551  55.6607257
  95.3556630  14.8032161  64.7078849  94.5652174  14.7856300  64.1683348
  95.1189985  15.3420455  65.4627885  84.3590764  14.3313173  49.3103666
  84.5078884  15.0148637  48.6570339  85.1657208  14.3118263  49.8253122
  96.9772702  14.0721569  62.2653599  96.6857511  14.4351549  63.1017060
  96.3644834  13.3588577  62.0866931  82.1143397  10.3578351  50.3164735
  81.8689439   9.4540681  50.5144945  82.2839312  10.3595501  49.3744213
  87.8586170  16.8261303  46.7815413  87.2860137  17.4451491  46.3285885
  88.4318963  17.3760665  47.3155335  91.0783429  17.1098454  47.9123996
  92.0114103  17.0444015  48.1156871  90.9906642  17.9454720  47.4538528
  93.7071446  16.4264324  44.8727943  93.6285078  16.0924187  45.7663701
  94.5281113  16.9186092  44.8719416  88.1271661  12.2139862  65.5832123
  89.0474670  12.3918461  65.7772169  88.0921244  11.2695908  65.4311822
  77.3453826   7.4078456  54.5085398  77.0256610   6.5543764  54.2159772
  76.7987254   7.6227034  55.2643365  81.1233733  10.1240897  58.2254904
  81.3419743  11.0558005  58.2442938  81.5359507   9.7648871  59.0109708
  77.2142086  11.0281367  56.4778519  76.5205557  10.6135320  55.9648474
  77.9615077  11.0701904  55.8811938  85.8592869   9.1271242  66.4322715
  85.3759950   9.9271602  66.6386604  85.9453808   9.1379186  65.4790159
  79.1278828  10.9599621  54.3544534  79.1049516  11.0587308  53.4026417
  79.4379465  11.8064772  54.6761700  81.7866206  13.0175776  58.4691148
  82.7409460  12.9859719  58.4021080  81.5878730  12.5566400  59.2841374
  82.3765588  11.5876892  61.0361946  83.1958477  12.0820971  61.0596783
  82.6502396  10.6708860  61.0079514  80.1416435  18.5595396  55.4861346
  80.0070903  17.7995797  54.9199344  79.7248497  19.2836296  55.0190135
  91.2775398  13.7432319  44.4937922  91.9811248  13.9482322  45.1095577
  90.5538047  14.3109081  44.7587005  83.2985561  19.4564713  55.6979789
  83.1817945  20.4010145  55.5958479  82.4778007  19.1538274  56.0865588
  93.1862095  14.1814848  46.5436382  94.0207699  13.7496047  46.3613856
  93.0246438  14.0096862  47.4713276  92.8407987  10.6846962  47.9092721
  92.7856791  10.5191233  46.9681165  92.2154043  11.3922995  48.0654911
  77.6300502   5.9215026  61.7354143  78.2759366   5.4113980  62.2241368
  77.4217654   6.6583708  62.3097568  90.1553895  12.9895874  67.2346284
  91.0245054  13.1636526  66.8732919  89.6760646  13.8090290  67.1122013
  84.3240075  20.1092975  58.9135717  85.2267322  20.1416585  59.2302212
  84.0977445  19.1793426  58.9282053  86.0793677  18.8623961  55.5745796
  85.1289308  18.8625823  55.4610168  86.3826163  18.1156696  55.0581831
 101.8146370  24.6984500  56.6391558 102.4524780  24.5791247  55.9354898
 101.6967213  25.6465344  56.6979511  98.6236077  24.6511928  56.5753083
  98.2854588  24.5352992  55.6873618  99.4925845  24.2503093  56.5554089
  94.4822892  26.5047404  52.5649974  93.9187757  26.4137341  51.7966262
  94.3675287  25.6847309  53.0452467  99.1055860  25.8046779  62.5339289
  99.0944500  25.4099578  61.6619792  99.2676499  25.0712852  63.1273060
  92.0287324  27.9998596  55.4034194  92.8208616  27.6589420  54.9880494
  92.2683974  28.1093571  56.3236348 100.0622451  30.1718372  47.8764439
  99.4110431  30.7572452  47.4898453 100.8566814  30.7024567  47.9359476
  93.9878078  27.2607509  48.2751573  94.7608954  26.7136496  48.1364449
  94.3403477  28.1251758  48.4866035  95.8263121  28.5883891  61.4818473
  95.5352987  29.4929522  61.3665139  96.4620105  28.6300419  62.1962542
  96.7519328  25.9660740  58.0719832  97.3482900  25.7416762  57.3576795
  96.8094299  25.2245485  58.6745280  96.3244356  23.4200175  45.9070023
  96.5769877  22.8981696  45.1453486  95.3868915  23.2566320  46.0096707
 101.3687639  22.4235953  53.7144766 102.1550728  22.0055377  53.3635183
 101.6326343  23.3282046  53.8826415 101.5397716  27.8608804  48.4133423
 100.9043549  27.9343430  49.1254328 101.2095123  28.4502403  47.7352502
 106.7696066  22.3611187  54.6177745 107.5021238  21.7910403  54.8515574
 106.0135422  21.9732787  55.0584251  96.0440645  25.3228281  48.1094398
  95.9276903  24.6473184  48.7775482  96.1542905  24.8360655  47.2926551
  98.3872186  24.7838428  51.8141087  98.0230393  24.2569049  52.5254009
  99.2439302  24.3936897  51.6407573 104.2921486  16.0732761  59.0772354
 103.9604811  16.9428172  58.8533569 103.6967100  15.7569045  59.7566384
  98.0277673  19.8128328  46.8102436  98.1952075  20.6808564  47.1772907
  97.8374842  19.9755610  45.8863725 100.7853006  28.2745307  58.4768266
 100.4853729  29.1770346  58.3684074 100.4404065  28.0077490  59.3289419
  94.2365487  24.7259104  54.5104971  93.3115984  24.5935318  54.7182662
  94.4849901  25.5053323  55.0074913 104.1850150  20.7927847  56.1565704
 103.2767027  20.7243255  55.8624465 104.1337745  21.2699792  56.9847529
  98.0066894  22.2685985  47.7949103  97.8866519  22.7143036  48.6334583
  97.3119482  22.6171303  47.2362641  91.5974298  24.3692377  55.3448760
  91.7266680  24.6226856  56.2588171  90.9171750  24.9620085  55.0253415
  95.7673786  35.0389627  51.4439234  95.6897815  35.9897452  51.5227715
  95.1635429  34.6935500  52.1014160  98.2591015  22.2117492  64.1000601
  97.4824350  22.7711413  64.0903466  98.8981579  22.6974275  64.6215471
 106.0511796  18.9944285  57.9343578 105.4086176  19.2876818  57.2883372
 105.5466725  18.8797206  58.7396774 103.7051960  22.7407458  48.6229437
 104.6169816  22.9734845  48.4477134 103.1961607  23.3244503  48.0604515
  96.5137388  25.0202946  63.6618568  97.2552072  25.5587990  63.3853391
  95.8074373  25.6469235  63.8190120 101.9892727  27.1632086  62.2590729
 102.3976083  26.7214497  61.5145362 101.2669989  26.5884714  62.5124922
  98.3423797  22.1004693  59.6324286  99.1884993  22.5244107  59.7758935
  98.2822435  21.4438317  60.3262849 102.3121542  27.7233277  56.0143018
 101.6830404  27.8878991  55.3119086 101.9247204  28.1374886  56.7853982
 106.1910774  28.6587715  53.3687382 105.5061812  29.0386616  52.8184415
 106.2754623  29.2683041  54.1019330 101.4923243  19.7609061  61.2905460
 101.2484175  20.5151122  60.7539736 101.7683173  20.1394409  62.1252707
 103.4461706  26.3047674  59.9682726 103.6578601  26.9479434  59.2917107
 103.3991454  25.4709990  59.5004656 101.0487935  18.9165494  56.8719298
 100.1872414  19.2146748  57.1636035 101.0750369  19.1335893  55.9400330
  97.8649504  27.4607685  53.2793103  98.3287849  27.7395388  52.4897726
  97.6006302  26.5591130  53.0966194  94.7573585  27.0079167  56.2172867
  95.3274942  27.4366435  55.5790351  95.3481697  26.7261751  56.9157052
  96.8018390  23.5830837  50.0882668  97.5042433  24.0351881  50.5556595
  96.4699018  22.9414656  50.7162562  95.2498752  22.1742594  64.4633878
  94.6197412  22.8558875  64.6969275  95.1434839  22.0625676  63.5187016
  90.5443724  21.8414390  55.3899802  89.7542778  22.0971919  54.9139913
  91.0354971  22.6562728  55.4951843 104.5607533  29.1819629  58.1405083
 105.3824977  28.7799817  57.8587765 104.5569936  29.0787863  59.0921199
  92.4958469  22.2058969  52.3483279  91.6989633  22.3177664  52.8666774
  92.2684062  22.5445622  51.4824169  98.3264137  28.7303673  60.2965793
  98.3908569  29.1924080  61.1323965  97.6175061  28.1001037  60.4248103
  88.8281427  22.0944881  57.8214793  89.0789465  22.9791890  58.0872369
  89.3640975  21.9149482  57.0489885  98.0412155  30.3971780  50.1644774
  97.9057829  31.2423316  50.5929622  98.5821967  30.5991058  49.4010708
  94.5279494  16.4763360  66.8259129  94.1346440  15.9229558  67.5006773
  95.3445635  16.7873938  67.2165646  91.4941552  27.9147218  50.7372699
  92.0066073  28.7090468  50.8878263  92.1464265  27.2173509  50.6706300
  93.3036437  31.0312974  52.8195452  93.4803065  31.9530939  52.6316436
  94.0993270  30.7171394  53.2489832  97.4447455  17.8921239  64.4179385
  98.1857169  18.4928392  64.3383848  97.6765378  17.1498877  63.8597428
  92.5888793  23.0777606  62.6957615  92.4742308  22.1762863  62.9964714
  91.7333311  23.3241303  62.3442432  99.6680631  31.0195347  64.2945116
  99.2244485  30.2331725  63.9766020 100.3297845  31.2074497  63.6289007
  94.4267752  32.5491148  58.8205794  94.9775177  32.4208211  58.0482788
  93.5879228  32.8486037  58.4700687 101.7661869  31.2998146  62.3226517
 101.7480344  32.1207027  61.8306786 102.6881789  31.1752222  62.5476658
  98.2234923  28.8142276  63.1650025  98.7563260  28.0530564  62.9349333
  97.6949004  28.5215928  63.9074180 101.3904618  13.9202342  58.6943667
 101.0468888  14.8103984  58.6182778 101.7583581  13.7304000  57.8313252
  89.4590469  26.2435872  51.5132269  90.2965691  26.6532881  51.2965977
  89.6368736  25.3035315  51.4832463 101.3554901  23.9110953  47.2016102
 100.8401524  24.6815558  47.4404490 101.0832209  23.2376089  47.8249164
  98.9402012  18.7560654  52.2601341  98.0843608  18.3667504  52.0806979
  99.3528964  18.8352615  51.4001126 100.4701159  16.2906997  56.6592900
  99.9665954  16.2537132  55.8460706 100.7631765  17.1999740  56.7189557
  96.7144044  16.3745727  55.6659082  97.5797041  16.1788535  55.3064972
  96.7821553  16.1456079  56.5928439 106.3289175  26.6643308  49.1369276
 105.5518618  26.3254467  48.6924438 107.0080656  26.6695931  48.4624241
 101.1441204  21.7838045  49.0275883 100.8391340  22.0984194  49.8786027
 102.0971646  21.8619465  49.0703216  99.5887636  27.9428268  50.6768837
  99.0608997  27.2081028  50.3642075  99.0875139  28.7202945  50.4308806
 104.5680482  26.1377289  55.7935884 103.9104156  26.8276550  55.8816012
 105.3720881  26.5273721  56.1369870  94.3206364  18.6047935  53.0375449
  94.8950115  18.3823116  52.3048642  94.9077346  18.6736629  53.7904050
 103.3785941  24.4921662  53.8439825 103.8917822  25.1251653  54.3461535
 104.0287165  23.8922857  53.4783186  94.6475951  20.6352396  47.0571334
  93.8113263  20.9727082  47.3780609  94.5080720  20.5001376  46.1198471
  96.6229031  15.4789184  51.7650518  95.9693444  15.1638201  51.1407133
  96.5809505  14.8564924  52.4910341  97.7340236  25.7608479  43.6803810
  96.8267298  25.5297732  43.8794959  98.2311268  24.9646098  43.8677792
 100.6408315  34.4705986  46.6000497  99.9670014  34.7737683  47.2085454
 101.0274137  35.2735066  46.2505954  99.8566772  21.9671117  56.0898166
  98.9389333  22.1886064  55.9319854 100.2726915  22.0417428  55.2309873
 100.6401819  23.3662533  51.2200846 101.3873638  23.8783930  50.9107968
 100.9093409  23.0446586  52.0805240  98.9128470  25.8621074  48.2027801
  98.0039689  25.5780106  48.3000270  98.9423553  26.2820152  47.3431107
 104.1447737  29.4727663  51.9718968 103.6910064  28.6318573  52.0284159
 103.5141704  30.1089061  52.3093748 103.0880657  20.4019649  53.2019636
 102.3503413  19.8897035  53.5329878 103.3407430  19.9620031  52.3902912
 102.5880676  31.3104160  52.9068786 102.8803651  31.8709217  52.1881152
 103.0979297  31.6032721  53.6621945  89.4816640  23.5826588  52.1843003
  89.2841040  22.9895948  51.4594069  88.9263304  23.2778798  52.9018942
  97.4613364  23.4749694  54.3037596  97.5161973  22.5223531  54.2280072
  96.6504566  23.6309133  54.7878894  98.6104557  27.4029817  45.5415879
  98.1723987  26.6865676  45.0821516  99.3514998  27.6305932  44.9800971
  95.4005723  22.0926754  52.0627975  94.5873589  22.3920924  52.4693167
  95.8964718  21.6982443  52.7802457  97.5514301  32.0884511  53.9962239
  97.5090480  32.3145357  53.0670771  98.4677000  31.8547885  54.1448041
 100.9979935  22.5568578  60.8942869 101.3529323  22.7840052  61.7537334
 101.6452066  22.8886955  60.2720124 106.7277672  25.6787014  51.5992198
 106.5895571  25.8688610  50.6713387 106.3713891  26.4406397  52.0560249
  94.8919798  19.6645109  57.6789210  95.5319178  19.5233869  56.9812173
  94.0597329  19.3779623  57.3027812 106.7547052  27.7463541  56.6103469
 107.1883558  27.6538830  57.4586523 107.4678632  27.7221042  55.9723485
  95.6680102  28.9647540  53.7924202  96.4620701  28.4697860  53.5906777
  94.9571795  28.4365403  53.4291908 100.4874947  31.3465635  58.1436570
 100.5411969  31.9156572  58.9114286  99.6189728  31.5167520  57.7790607
  91.9762866  23.1090622  49.8683955  91.0460454  23.0475077  50.0853917
  92.0720338  22.5866574  49.0720596  91.8948415  19.6345434  52.4562197
  92.1555232  20.5490768  52.3471357  92.7165587  19.1669877  52.6058809
  93.3673340  21.0483192  59.6261021  94.0396393  20.8400554  58.9773670
  92.5403127  20.8505278  59.1866253 107.6162601  27.7887242  59.1436355
 107.8098491  28.6933052  59.3895630 107.5163219  27.3294661  59.9774940
  99.2698912  17.6745132  61.6426682  98.6226827  18.3735082  61.5491158
 100.0399927  18.1081276  62.0102930 102.6777710  27.9393985  64.7177235
 102.5263216  27.7104536  63.8007319 102.6682389  28.8964586  64.7308580
  99.4463046  25.5125897  59.7023502 100.3755106  25.6637057  59.5292469
  99.0254076  25.6009918  58.8472148  98.2451378  29.5376562  57.4722039
  98.1062464  29.1695346  58.3447977  97.4565974  30.0524201  57.3005997
  98.8399530  34.6385658  48.8147576  99.0151286  34.1673701  49.6293198
  98.1532318  35.2651424  49.0428837  99.7956593  28.9158165  54.8610877
  99.4606426  28.8758934  55.7568527  99.2960539  28.2502880  54.3881287
  93.7700837  24.3225795  60.3863458  93.6320635  23.5906033  60.9874997
  94.6805761  24.2334695  60.1047646 102.7315785  26.2614199  45.1347937
 102.1144956  25.5361027  45.0380989 102.2632273  27.0223559  44.7915011
  96.3983138  24.0345754  59.8747138  97.1082756  23.3938946  59.8333756
  96.3552446  24.2858649  60.7973319 104.3869917  30.9713107  62.7953717
 104.3282463  30.2872327  62.1284300 104.7889435  31.7132097  62.3434343
  95.1112072  21.0210972  61.6942777  94.5749429  20.5701710  62.3464374
  94.5228780  21.1556881  60.9513242  93.4060615  37.7875021  55.5887436
  93.6457214  38.4193545  56.2666455  92.5629812  37.4363061  55.8752795
  94.5214331  20.4799623  44.2569241  93.6443797  20.3588424  43.8931488
  94.9972084  19.6885701  44.0048130 104.3887324  28.9352691  61.0267697
 103.5014103  28.5978613  61.1494096 104.9585875  28.2035722  61.2636462
  86.0416471  25.2676783  54.3510748  86.7287511  24.9538513  53.7631763
  85.8864600  26.1718148  54.0778000  90.8451193  20.1566979  58.7795772
  90.7609382  19.5492649  58.0446182  90.0233900  20.6475998  58.7805268
  97.9188477  33.5954143  57.9928940  97.8458649  34.4009115  58.5048245
  97.4765870  33.7946109  57.1676961  97.7078257  32.8325914  51.5031762
  96.9245779  33.3747594  51.5969986  98.4071002  33.3499893  51.9026003
 101.0174907  18.6420543  54.1465967 101.5143607  17.8890505  53.8267037
 100.2461889  18.6784860  53.5809176 108.8704664  24.3460909  55.7884258
 108.8594541  25.2285624  55.4178192 108.0022044  23.9932459  55.5938795
 100.3787161  33.4940978  60.1487099 101.0915133  34.1288442  60.0763000
  99.8877189  33.5904844  59.3327100 102.1004688  27.3992230  51.7204390
 101.1660966  27.5193693  51.5509095 102.2781356  26.4964697  51.4564400
  97.6009876  20.7837926  53.8737651  97.2307663  20.2308966  54.5618557
  98.0968968  20.1796059  53.3212652 105.4877239  23.2409549  52.2554424
 105.9537691  24.0737541  52.1814727 105.9384740  22.7754531  52.9599683
  95.4299074  31.2435421  60.9692669  96.1308534  31.8771904  61.1222064
  94.9594189  31.5850153  60.2088309 103.5553470  29.5853371  49.2540576
 103.8313314  29.4709965  50.1634451 102.6857969  29.1870856  49.2152750
 103.4593902  15.6090136  56.2945326 102.5456982  15.8394363  56.4627533
 103.8887003  15.6928581  57.1459358 103.2300360  23.7980028  58.7945220
 102.5771811  24.0455936  58.1397673 103.6080740  22.9844167  58.4607697
 100.1907534  33.8339722  52.8973390 100.3729929  33.0161378  53.3601142
 101.0140520  34.0507414  52.4598280 100.5249700  32.7607907  50.1588439
 101.0537466  32.2500361  49.5458601 100.7877919  32.4450437  51.0233972
  99.2787933  24.5399840  65.2811257  98.6028570  24.4393969  65.9513632
 100.1015567  24.3839053  65.7447254  91.0266792  30.7771776  57.9023772
  91.6120229  30.0315464  58.0351676  90.8291631  31.0875733  58.7860436
  93.8805448  33.8123023  52.9186215  93.2115823  34.2969151  52.4350255
  93.7418317  34.0592244  53.8329593  85.6184447  23.3477376  56.6228215
  85.6568547  22.8140967  57.4165333  85.1124740  22.8212582  56.0039192
  98.0210716  35.8466767  59.5168873  98.5729024  36.0098388  60.2817958
  98.3616910  36.4371205  58.8448898  92.9975209  18.1941917  60.1190758
  93.0616536  19.0556748  59.7068155  92.9342330  17.5815918  59.3863116
  92.4727482  20.2665049  63.7663792  93.0999521  19.8842127  64.3801316
  91.6155401  20.0479251  64.1319484 102.8721591  30.6728024  65.3717527
 103.4161494  31.2857983  64.8772482 102.2908435  31.2307603  65.8884540
  89.2493025  22.0741478  49.6982147  89.5446466  21.1652157  49.6449200
  88.3481060  22.0529218  49.3763149 101.1579103  33.7948742  56.5032555
 101.0330243  32.9938482  55.9943501 101.8158195  34.2894936  56.0146525
  92.7787272  20.1497475  55.6809695  92.0573857  20.7633443  55.5417169
  93.5680527  20.6855240  55.6026341 103.2214012  31.5957763  58.1312105
 102.2744347  31.4763114  58.0590432 103.5696785  30.7080261  58.2138367
  95.5813585  17.4851901  61.9550347  96.1047987  17.7314198  62.7176656
  95.3625918  18.3171936  61.5353484  90.9780866  19.7555576  49.8221472
  90.6493572  18.8752955  49.6396578  91.3320237  19.7003245  50.7097861
 100.2260445  31.3910479  54.3316457 100.0785408  30.4627186  54.5124027
 101.0513939  31.4130569  53.8473533  94.0922689  20.0428546  50.1896950
  94.4318762  20.5714467  49.4675558  94.5394810  20.3808952  50.9655516
 103.8294567  32.2139038  55.4181330 104.7541114  32.0081899  55.2805781
 103.6609870  31.9655439  56.3270672  96.7866130  18.4265597  59.6400018
  96.4462951  17.6273410  60.0420697  96.0805137  18.7267307  59.0676851
  97.4382602  15.5114909  58.0927341  98.2608671  15.0375387  57.9706231
  97.6820666  16.2905393  58.5926027  96.0790837  18.5403167  48.3890242
  96.7999199  18.9184420  47.8853959  95.4556141  19.2592044  48.4925220
 100.2221959  19.2448316  49.3248575 100.4385574  20.1272954  49.0237403
  99.7416027  18.8534530  48.5954217  94.9621181  22.2034030  55.9019319
  94.8165762  22.5174333  56.7943601  94.4846384  22.8218930  55.3490218
  96.8217564  19.1936578  55.9500209  96.8079132  18.2977671  55.6132507
  97.5389992  19.2007241  56.5838495  98.6743694  19.6273918  57.9953336
  98.4161472  20.5490988  57.9937667  98.1428735  19.2304352  58.6853800
 103.6189883  32.7324705  50.7743422 103.7926761  32.1671127  50.0217274
 104.1118774  33.5325600  50.5922912  89.4366843  24.7439374  58.8406980
  88.8920311  25.5199182  58.9727255  90.3146193  25.0910179  58.6826102
  96.2254460  18.0750958  51.2187779  96.3470371  17.1467604  51.4178666
  95.9356502  18.0889644  50.3066094  99.0945650  15.7605868  54.3554499
  99.1167347  15.8245201  53.4006478  99.5113709  14.9210377  54.5495005
 109.4729274  25.4961128  52.3933721 109.9160420  24.7468453  51.9952845
 108.5955785  25.4871264  52.0107453 104.6065056  32.0491469  47.8740320
 105.3015960  32.6698162  48.0927634 104.9488206  31.1986821  48.1492698
  90.2232865  23.8709270  61.7337137  89.4814601  24.0191906  62.3201768
  89.9025609  24.1317536  60.8703887 106.5056479  29.4991175  49.4027651
 107.0307803  29.8378448  48.6776971 106.4178831  28.5638190  49.2190785
  98.1676528  33.4125249  61.5317527  98.4763654  33.1674395  62.4040227
  98.9652010  33.6171887  61.0436397  98.1897140  35.5663158  53.7622904
  97.7502130  35.0739537  54.4555761  98.9405257  35.0236126  53.5214979
  90.6689479  31.7574699  53.7647532  91.4947498  31.4578471  53.3846175
  90.3183531  30.9882321  54.2137321  95.6371012  31.1101167  55.8345205
  95.0151021  30.4471872  55.5347433  96.3075879  31.1362299  55.1518853
  88.8698084  29.6761025  54.7236465  88.0329992  29.2483200  54.5420467
  88.8421729  29.8693469  55.6607257  95.7095539  19.5882955  65.4277712
  95.7583695  20.4645078  65.0455481  96.2518053  19.0460348  64.8549355
 106.1950385  30.1324079  64.7078849 105.4045929  30.1148217  64.1683348
 105.9583739  30.6712372  65.4627885 106.3148260  26.9816545  62.0211577
 106.3646265  26.8166552  62.9627100 106.2062183  26.1143804  61.6309458
  95.1984519  29.6605091  49.3103666  95.3472639  30.3440555  48.6570339
  96.0050962  29.6410181  49.8253122 103.6052022  22.9647473  63.3370884
 104.5061885  22.8253938  63.0454882 103.6799997  23.1301928  64.2769061
  97.9394828  20.3414328  62.1824070  97.0698137  20.6347894  61.9106659
  98.1754308  20.9254773  62.9031334 107.8166457  29.4013486  62.2653599
 107.5251265  29.7643467  63.1017060 107.2038588  28.6880495  62.0866931
 109.0162139  26.9666366  54.7856169 109.8509030  27.4056170  54.9493729
 109.1521268  26.4905019  53.9664415 106.0653645  24.5246101  60.7333657
 106.5407767  24.7173747  59.9252508 105.1419210  24.5805287  60.4877040
  92.9537152  25.6870268  50.3164735  92.7083194  24.7832598  50.5144945
  93.1233066  25.6887419  49.3744213 100.6433861  16.5593945  59.6989491
 101.1615805  17.2954972  59.3735979 100.2888994  16.8657938  60.5336250
  92.2232799  21.4198626  47.8150896  91.5302044  21.4942981  47.1590932
  91.9784551  20.6558969  48.3372413  98.6979924  32.1553221  46.7815413
  98.1253891  32.7743408  46.3285885  99.2712718  32.7052583  47.3155335
 104.7655314  21.4011861  58.9661962 105.7172737  21.5009959  58.9874186
 104.5958764  20.6090130  59.4760047 102.7869693  18.4867444  59.1521363
 102.1919626  18.7672457  58.4567852 102.5019390  18.9761345  59.9238104
 101.9177184  32.4390371  47.9123996 102.8507857  32.3735933  48.1156871
 101.8300397  33.2746638  47.4538528 104.5465201  31.7556242  44.8727943
 104.4678832  31.4216105  45.7663701 105.3674867  32.2478009  44.8719416
 107.2443392  24.6217981  58.0804262 107.2119712  23.6833982  58.2663946
 107.8544015  24.7002018  57.3470087  99.0826723  23.4914034  44.1231466
 100.0285827  23.3620242  44.1919884  98.7040968  22.7528696  44.6000894
 107.3937880  21.4129024  58.1262545 106.8776929  20.6287481  57.9392474
 108.2777829  21.0847741  58.2909065 105.0548607  15.1570040  54.0858358
 104.8573428  14.8485128  54.9701690 105.6648313  15.8831679  54.2156288
  98.9665415  27.5431780  65.5832123  99.8868425  27.7210379  65.7772169
  98.9314998  26.5987825  65.4311822  97.2669640  21.4164010  44.0586351
  96.3601095  21.1197123  44.1349065  97.5445621  21.1193828  43.1920637
  88.1847580  22.7370374  54.5085398  87.8650365  21.8835682  54.2159772
  87.6381008  22.9518952  55.2643365  91.9627488  25.4532815  58.2254904
  92.1813498  26.3849922  58.2442938  92.3753262  25.0940789  59.0109708
  98.8831706  15.9600900  50.2130592  98.0732434  15.6147985  50.5885839
  99.5716122  15.6508444  50.8018204 100.8122254  15.0378947  51.8354889
 101.3653292  15.4574400  52.4944912 101.0492340  14.1114695  51.8777845
  96.8355353  21.0266020  67.6157653  96.7352080  21.9760377  67.5469744
  96.6176895  20.6984259  66.7433723  96.0368424  18.2750945  44.1998330
  96.8987588  18.6005844  44.4594148  96.2218769  17.4882441  43.6871396
  88.0535840  26.3573285  56.4778519  87.3599312  25.9427238  55.9648474
  88.8008831  26.3993822  55.8811938 104.1901061  17.1479472  51.3433553
 103.6099730  17.8064276  50.9611606 103.9236994  16.3256816  50.9320971
 102.6404627  16.5484530  53.5454874 103.1404406  16.6601064  52.7369193
 103.2840235  16.2445582  54.1855682  96.6986623  24.4563159  66.4322715
  96.2153705  25.2563519  66.6386604  96.7847562  24.4671104  65.4790159
  89.9672583  26.2891539  54.3544534  89.9443271  26.3879226  53.4026417
  90.2773219  27.1356690  54.6761700  92.6259961  28.3467694  58.4691148
  93.5803214  28.3151636  58.4021080  92.4272484  27.8858318  59.2841374
  93.2159343  26.9168810  61.0361946  94.0352232  27.4112889  61.0596783
  93.4896150  26.0000778  61.0079514 102.9725939  19.3079562  50.3989902
 102.0851794  19.5929213  50.1810096 103.3879928  19.1473326  49.5517179
 106.3240475  19.3326083  54.1144241 107.1000865  19.8222536  54.3868858
 105.5988609  19.7584137  54.5716110 108.7613034  20.0453702  55.1718181
 109.3557524  19.8049438  54.4611490 108.8339617  19.3260833  55.7991718
  90.9810189  33.8887313  55.4861346  90.8464657  33.1287714  54.9199344
  90.5642252  34.6128213  55.0190135 102.1169152  29.0724237  44.4937922
 102.8205003  29.2774239  45.1095577 101.3931801  29.6400999  44.7587005
 102.9466963  24.8234098  50.6140192 102.8902164  25.2802650  49.7747824
 103.4995305  24.0624783  50.4363035 106.7571769  20.6123830  51.4390311
 106.5008703  20.2120466  52.2698519 106.1324637  21.3267624  51.3140450
  94.1379315  34.7856630  55.6979789  94.0211699  35.7302063  55.5958479
  93.3171762  34.4830192  56.0865588 104.0255850  29.5106766  46.5436382
 104.8601454  29.0787965  46.3613856 103.8640193  29.3388780  47.4713276
 103.6801742  26.0138879  47.9092721 103.6250546  25.8483151  46.9681165
 103.0547797  26.7214912  48.0654911  88.4694257  21.2506944  61.7354143
  89.1153121  20.7405898  62.2241368  88.2611408  21.9875625  62.3097568
 100.9947649  28.3187791  67.2346284 101.8638809  28.4928444  66.8732919
 100.5154401  29.1382208  67.1122013  96.9897867  15.5146988  47.4878039
  96.9776537  16.4588828  47.6446310  97.8821289  15.3317134  47.1937501
  95.1633829  35.4384892  58.9135717  96.0661076  35.4708503  59.2302212
  94.9371199  34.5085343  58.9282053  96.9187431  34.1915879  55.5745796
  95.9683062  34.1917740  55.4610168  97.2219918  33.4448613  55.0581831
  92.8091748  18.3974561  65.8329157  93.6723210  18.0411366  66.0432482
  92.2357159  18.0588456  66.5204562 109.4629831  39.9803845  56.5753083
 109.1248343  39.8644910  55.6873618 110.3319599  39.5795010  56.5554089
 105.3216647  41.8339322  52.5649974 104.7581512  41.7429259  51.7966262
 105.2069042  41.0139226  53.0452467 109.9449614  41.1338697  62.5339289
 109.9338255  40.7391495  61.6619792 110.1070254  40.4004770  63.1273060
 102.8681079  43.3290513  55.4034194 103.6602371  42.9881338  54.9880494
 103.1077729  43.4385488  56.3236348 104.8271833  42.5899427  48.2751573
 105.6002709  42.0428414  48.1364449 105.1797232  43.4543676  48.4866035
 106.6656875  43.9175809  61.4818473 106.3746741  44.8221440  61.3665139
 107.3013860  43.9592336  62.1962542 107.5913082  41.2952657  58.0719832
 108.1876654  41.0708680  57.3576795 107.6488054  40.5537403  58.6745280
 107.1638111  38.7492093  45.9070023 107.4163631  38.2273614  45.1453486
 106.2262670  38.5858238  46.0096707 106.8834399  40.6520199  48.1094398
 106.7670657  39.9765102  48.7775482 106.9936659  40.1652573  47.2926551
 109.2265940  40.1130346  51.8141087 108.8624147  39.5860967  52.5254009
 110.0833056  39.7228815  51.6407573 108.8671427  35.1420245  46.8102436
 109.0345830  36.0100482  47.1772907 108.6768596  35.3047527  45.8863725
 105.0759242  40.0551021  54.5104971 104.1509738  39.9227235  54.7182662
 105.3243655  40.8345240  55.0074913 108.8460648  37.5977903  47.7949103
 108.7260273  38.0434954  48.6334583 108.1513236  37.9463221  47.2362641
 102.4368053  39.6984295  55.3448760 102.5660434  39.9518774  56.2588171
 101.7565504  40.2912003  55.0253415 106.6067540  50.3681545  51.4439234
 106.5291570  51.3189370  51.5227715 106.0029184  50.0227417  52.1014160
 109.0984770  37.5409410  64.1000601 108.3218104  38.1003330  64.0903466
 109.7375333  38.0266193  64.6215471 107.3531142  40.3494864  63.6618568
 108.0945827  40.8879907  63.3853391 106.6468128  40.9761152  63.8190120
 109.1817552  37.4296611  59.6324286 110.0278747  37.8536024  59.7758935
 109.1216190  36.7730235  60.3262849 108.7043258  42.7899603  53.2793103
 109.1681604  43.0687306  52.4897726 108.4400057  41.8883047  53.0966194
 105.5967339  42.3371084  56.2172867 106.1668697  42.7658353  55.5790351
 106.1875451  42.0553669  56.9157052 107.6412144  38.9122755  50.0882668
 108.3436188  39.3643799  50.5556595 107.3092773  38.2706574  50.7162562
 106.0892506  37.5034512  64.4633878 105.4591167  38.1850793  64.6969275
 105.9828594  37.3917593  63.5187016 101.3837478  37.1706308  55.3899802
 100.5936532  37.4263836  54.9139913 101.8748726  37.9854646  55.4951843
 103.3352224  37.5350887  52.3483279 102.5383387  37.6469581  52.8666774
 103.1077816  37.8737539  51.4824169 109.1657891  44.0595590  60.2965793
 109.2302324  44.5215997  61.1323965 108.4568815  43.4292955  60.4248103
  99.6675181  37.4236798  57.8214793  99.9183220  38.3083808  58.0872369
 100.2034730  37.2441400  57.0489885 108.8805909  45.7263698  50.1644774
 108.7451584  46.5715233  50.5929622 109.4215722  45.9282975  49.4010708
 105.3673249  31.8055278  66.8259129 104.9740194  31.2521476  67.5006773
 106.1839389  32.1165856  67.2165646 102.3335306  43.2439136  50.7372699
 102.8459827  44.0382386  50.8878263 102.9858019  42.5465426  50.6706300
 104.1430191  46.3604892  52.8195452 104.3196820  47.2822857  52.6316436
 104.9387025  46.0463311  53.2489832 108.2841210  33.2213157  64.4179385
 109.0250923  33.8220310  64.3383848 108.5159133  32.4790794  63.8597428
 103.4282548  38.4069524  62.6957615 103.3136063  37.5054781  62.9964714
 102.5727065  38.6533221  62.3442432 105.2661507  47.8783066  58.8205794
 105.8168932  47.7500129  58.0482788 104.4272983  48.1777955  58.4700687
 109.0628678  44.1434194  63.1650025 109.5957014  43.3822482  62.9349333
 108.5342759  43.8507845  63.9074180 100.2984223  41.5727790  51.5132269
 101.1359445  41.9824798  51.2965977 100.4762491  40.6327232  51.4832463
 109.7795766  34.0852571  52.2601341 108.9237363  33.6959422  52.0806979
 110.1922718  34.1644532  51.4001126 107.5537799  31.7037644  55.6659082
 108.4190796  31.5080453  55.3064972 107.6215308  31.4747996  56.5928439
 110.4281390  43.2720186  50.6768837 109.9002752  42.5372946  50.3642075
 109.9268893  44.0494862  50.4308806 105.1600118  33.9339852  53.0375449
 105.7343870  33.7115034  52.3048642 105.7471100  34.0028547  53.7904050
 105.4869705  35.9644313  47.0571334 104.6507017  36.3019000  47.3780609
 105.3474475  35.8293293  46.1198471 107.4622786  30.8081101  51.7650518
 106.8087198  30.4930118  51.1407133 107.4203260  30.1856842  52.4910341
 108.5733991  41.0900396  43.6803810 107.6661052  40.8589650  43.8794959
 109.0705023  40.2938016  43.8677792 109.7522224  41.1912991  48.2027801
 108.8433443  40.9072024  48.3000270 109.7817308  41.6112070  47.3431107
 100.3210394  38.9118505  52.1843003 100.1234794  38.3187866  51.4594069
  99.7657058  38.6070716  52.9018942 108.3007118  38.8041612  54.3037596
 108.3555728  37.8515448  54.2280072 107.4898320  38.9601051  54.7878894
 109.4498312  42.7321735  45.5415879 109.0117742  42.0157594  45.0821516
 110.1908753  42.9597850  44.9800971 106.2399478  37.4218672  52.0627975
 105.4267344  37.7212842  52.4693167 106.7358472  37.0274360  52.7802457
 108.3908056  47.4176429  53.9962239 108.3484235  47.6437275  53.0670771
 109.3070755  47.1839803  54.1448041 105.7313553  34.9937027  57.6789210
 106.3712932  34.8525786  56.9812173 104.8991083  34.7071540  57.3027812
 106.5073857  44.2939458  53.7924202 107.3014455  43.7989778  53.5906777
 105.7965549  43.7657321  53.4291908 102.8156620  38.4382539  49.8683955
 101.8854208  38.3766995  50.0853917 102.9114092  37.9158492  49.0720596
 102.7342169  34.9637352  52.4562197 102.9948986  35.8782685  52.3471357
 103.5559341  34.4961795  52.6058809 104.2067094  36.3775109  59.6261021
 104.8790148  36.1692471  58.9773670 103.3796881  36.1797195  59.1866253
 109.0845133  44.8668480  57.4722039 108.9456218  44.4987264  58.3447977
 108.2959729  45.3816119  57.3005997 109.6793285  49.9677576  48.8147576
 109.8545040  49.4965619  49.6293198 108.9926073  50.5943342  49.0428837
 104.6094592  39.6517712  60.3863458 104.4714390  38.9197951  60.9874997
 105.5199515  39.5626612  60.1047646 107.2376892  39.3637672  59.8747138
 107.9476511  38.7230864  59.8333756 107.1946201  39.6150566  60.7973319
 105.9505826  36.3502889  61.6942777 105.4143183  35.8993628  62.3464374
 105.3622535  36.4848798  60.9513242 104.2454370  53.1166939  55.5887436
 104.4850968  53.7485463  56.2666455 103.4023566  52.7654979  55.8752795
 105.3608085  35.8091541  44.2569241 104.4837552  35.6880342  43.8931488
 105.8365838  35.0177619  44.0048130  96.8810225  40.5968701  54.3510748
  97.5681265  40.2830431  53.7631763  96.7258354  41.5010065  54.0778000
 101.6844948  35.4858897  58.7795772 101.6003136  34.8784567  58.0446182
 100.8627654  35.9767915  58.7805268 108.7582232  48.9246061  57.9928940
 108.6852403  49.7301033  58.5048245 108.3159625  49.1238027  57.1676961
 108.5472011  48.1617831  51.5031762 107.7639533  48.7039511  51.5969986
 109.2464757  48.6791811  51.9026003 108.4403630  36.1129844  53.8737651
 108.0701418  35.5600884  54.5618557 108.9362723  35.5087977  53.3212652
 106.2692829  46.5727339  60.9692669 106.9702288  47.2063822  61.1222064
 105.7987944  46.9142070  60.2088309 101.8660547  46.1063694  57.9023772
 102.4513984  45.3607382  58.0351676 101.6685385  46.4167650  58.7860436
 104.7199202  49.1414941  52.9186215 104.0509577  49.6261069  52.4350255
 104.5812072  49.3884162  53.8329593  96.4578202  38.6769294  56.6228215
  96.4962301  38.1432885  57.4165333  95.9518494  38.1504499  56.0039192
 108.8604471  51.1758685  59.5168873 109.4122779  51.3390306  60.2817958
 109.2010664  51.7663122  58.8448898 103.8368964  33.5233834  60.1190758
 103.9010290  34.3848665  59.7068155 103.7736084  32.9107836  59.3863116
 103.3121236  35.5956967  63.7663792 103.9393275  35.2134044  64.3801316
 102.4549155  35.3771169  64.1319484 100.0886779  37.4033396  49.6982147
 100.3840220  36.4944074  49.6449200  99.1874815  37.3821136  49.3763149
 103.6181026  35.4789393  55.6809695 102.8967612  36.0925360  55.5417169
 104.4074282  36.0147157  55.6026341 106.4207340  32.8143819  61.9550347
 106.9441742  33.0606116  62.7176656 106.2019673  33.6463854  61.5353484
 101.8174621  35.0847494  49.8221472 101.4887327  34.2044873  49.6396578
 102.1713991  35.0295162  50.7097861 104.9316444  35.3720464  50.1896950
 105.2712516  35.9006385  49.4675558 105.3788564  35.7100870  50.9655516
 107.6259885  33.7557514  59.6400018 107.2856705  32.9565327  60.0420697
 106.9198891  34.0559225  59.0676851 108.2776357  30.8406827  58.0927341
 109.1002426  30.3667305  57.9706231 108.5214420  31.6197310  58.5926027
 106.9184591  33.8695085  48.3890242 107.6392954  34.2476338  47.8853959
 106.2949895  34.5883962  48.4925220 105.8014935  37.5325947  55.9019319
 105.6559516  37.8466250  56.7943601 105.3240139  38.1510848  55.3490218
 107.6611318  34.5228495  55.9500209 107.6472887  33.6269589  55.6132507
 108.3783746  34.5299159  56.5838495 109.5137449  34.9565836  57.9953336
 109.2555227  35.8782906  57.9937667 108.9822489  34.5596270  58.6853800
 100.2760597  40.0731292  58.8406980  99.7314066  40.8491100  58.9727255
 101.1539947  40.4202096  58.6826102 107.0648214  33.4042876  51.2187779
 107.1864125  32.4759522  51.4178666 106.7750257  33.4181562  50.3066094
 109.9339405  31.0897786  54.3554499 109.9561101  31.1537119  53.4006478
 110.3507464  30.2502295  54.5495005 101.0626619  39.2001188  61.7337137
 100.3208355  39.3483823  62.3201768 100.7419364  39.4609454  60.8703887
 109.0070282  48.7417166  61.5317527 109.3157408  48.4966313  62.4040227
 109.8045764  48.9463805  61.0436397 109.0290894  50.8955076  53.7622904
 108.5895884  50.4031455  54.4555761 109.7799011  50.3528044  53.5214979
 101.5083233  47.0866617  53.7647532 102.3341253  46.7870389  53.3846175
 101.1577285  46.3174239  54.2137321 106.4764766  46.4393085  55.8345205
 105.8544775  45.7763790  55.5347433 107.1469633  46.4654217  55.1518853
  99.7091838  45.0052943  54.7236465  98.8723746  44.5775118  54.5420467
  99.6815484  45.1985387  55.6607257 106.5489294  34.9174873  65.4277712
 106.5977449  35.7936996  65.0455481 107.0911808  34.3752266  64.8549355
 106.0378273  44.9897008  49.3103666 106.1866393  45.6732473  48.6570339
 106.8444717  44.9702098  49.8253122 108.7788582  35.6706245  62.1824070
 107.9091892  35.9639811  61.9106659 109.0148062  36.2546690  62.9031334
 103.7930906  41.0162186  50.3164735 103.5476948  40.1124516  50.5144945
 103.9626821  41.0179336  49.3744213 103.0626554  36.7490543  47.8150896
 102.3695799  36.8234898  47.1590932 102.8178306  35.9850887  48.3372413
 109.5373679  47.4845139  46.7815413 108.9647646  48.1035326  46.3285885
 110.1106472  48.0344500  47.3155335 108.1063394  36.7455928  44.0586351
 107.1994850  36.4489041  44.1349065 108.3839375  36.4485746  43.1920637
  99.0241335  38.0662291  54.5085398  98.7044119  37.2127599  54.2159772
  98.4774763  38.2810869  55.2643365 102.8021242  40.7824732  58.2254904
 103.0207252  41.7141840  58.2442938 103.2147016  40.4232707  59.0109708
 109.7225460  31.2892818  50.2130592 108.9126188  30.9439903  50.5885839
 110.4109877  30.9800361  50.8018204 107.6749108  36.3557938  67.6157653
 107.5745834  37.3052295  67.5469744 107.4570650  36.0276177  66.7433723
 106.8762179  33.6042863  44.1998330 107.7381343  33.9297761  44.4594148
 107.0612523  32.8174359  43.6871396  98.8929595  41.6865203  56.4778519
  98.1993066  41.2719156  55.9648474  99.6402586  41.7285739  55.8811938
 107.5380378  39.7855077  66.4322715 107.0547459  40.5855437  66.6386604
 107.6241317  39.7963022  65.4790159 100.8066337  41.6183457  54.3544534
 100.7837025  41.7171144  53.4026417 101.1166974  42.4648607  54.6761700
 103.4653715  43.6759612  58.4691148 104.4196969  43.6443554  58.4021080
 103.2666239  43.2150235  59.2841374 104.0553097  42.2460728  61.0361946
 104.8745986  42.7404806  61.0596783 104.3289905  41.3292696  61.0079514
 101.8203944  49.2179231  55.4861346 101.6858412  48.4579632  54.9199344
 101.4036006  49.9420131  55.0190135 104.9773070  50.1148548  55.6979789
 104.8605454  51.0593981  55.5958479 104.1565516  49.8122110  56.0865588
  99.3088011  36.5798861  61.7354143  99.9546875  36.0697815  62.2241368
  99.1005163  37.3167543  62.3097568 107.8291622  30.8438906  47.4878039
 107.8170292  31.7880746  47.6446310 108.7215044  30.6609052  47.1937501
 106.0027584  50.7676810  58.9135717 106.9054831  50.8000420  59.2302212
 105.7764954  49.8377261  58.9282053 107.7581186  49.5207797  55.5745796
 106.8076817  49.5209658  55.4610168 108.0613672  48.7740531  55.0581831
 103.6485502  33.7266479  65.8329157 104.5116964  33.3703283  66.0432482
 103.0750913  33.3880373  66.5204562 107.7203980  55.9260618  54.3510748
 108.4075020  55.6122348  53.7631763 107.5652109  56.8301983  54.0778000
 107.2971956  54.0061212  56.6228215 107.3356056  53.4724802  57.4165333
 106.7912249  53.4796417  56.0039192 109.8635089  53.3954209  54.5085398
 109.5437873  52.5419517  54.2159772 109.3168517  53.6102787  55.2643365
 109.7323349  57.0157120  56.4778519 109.0386821  56.6011073  55.9648474
 110.4796340  57.0577657  55.8811938  95.7673787  12.0451750  38.1684541
  95.6897817  12.9959575  38.2473021  95.1635431  11.6997622  38.8259467
  93.4060617  14.7937144  42.3132743  93.6457215  15.4255668  42.9911761
  92.5629813  14.4425184  42.5998102  93.8805449  10.8185146  39.6431521
  93.2115824  11.3031274  39.1595561  93.7418319  11.0654366  40.5574900
  98.0210717  12.8528890  46.2414180  98.5729025  13.0160511  47.0063265
  98.3616911  13.4433327  45.5694204  90.9810191  10.8949436  42.2106653
  90.8464659  10.1349837  41.6444651  90.5642253  11.6190336  41.7435442
  94.1379316  11.7918753  42.4225096  94.0211701  12.7364185  42.3203786
  93.3171763  11.4892315  42.8110895  95.1633831  12.4447015  45.6381024
  96.0661077  12.4770625  45.9547519  94.9371201  11.5147466  45.6527360
 109.4629832  16.9865968  43.2998390 109.1248344  16.8707033  42.4118925
 110.3319601  16.5857133  43.2799396 105.3216648  18.8401444  39.2895281
 104.7581513  18.7491381  38.5211568 105.2069043  18.0201349  39.7697773
 109.9449615  18.1400820  49.2584595 109.9338256  17.7453618  48.3865099
 110.1070255  17.4066892  49.8518367 102.8681080  20.3352636  42.1279501
 103.6602372  19.9943461  41.7125800 103.1077730  20.4447611  43.0481654
 104.8271834  19.5961549  34.9996880 105.6002710  19.0490536  34.8609756
 105.1797233  20.4605799  35.2111341 106.6656877  20.9237931  48.2063779
 106.3746743  21.8283562  48.0910446 107.3013861  20.9654459  48.9207849
 107.5913083  18.3014780  44.7965139 108.1876656  18.0770802  44.0822102
 107.6488055  17.5599525  45.3990587 106.8834401  17.6582321  34.8339705
 106.7670659  16.9827225  35.5020789 106.9936660  17.1714695  34.0171858
 109.2265941  17.1192468  38.5386394 108.8624149  16.5923089  39.2499316
 110.0833057  16.7290937  38.3652879 105.0759243  17.0613144  41.2350277
 104.1509740  16.9289358  41.4427969 105.3243656  17.8407363  41.7320220
 102.4368054  16.7046417  42.0694066 102.5660435  16.9580896  42.9833478
 101.7565505  17.2974125  41.7498721 106.6067541  27.3743667  38.1684541
 106.5291571  28.3251492  38.2473021 106.0029185  27.0289540  38.8259467
 107.3531144  17.3556986  50.3863875 108.0945828  17.8942030  50.1098698
 106.6468129  17.9823275  50.5435426 108.7043260  19.7961725  40.0038410
 109.1681605  20.0749428  39.2143032 108.4400058  18.8945170  39.8211501
 105.5967341  19.3433207  42.9418173 106.1668698  19.7720475  42.3035658
 106.1875453  19.0615792  43.6402359 101.3837480  14.1768430  42.1145109
 100.5936534  14.4325959  41.6385219 101.8748727  14.9916768  42.2197149
 103.3352225  14.5413010  39.0728585 102.5383388  14.6531704  39.5912081
 103.1077817  14.8799662  38.2069476 109.1657893  21.0657713  47.0211100
 109.2302325  21.5278120  47.8569272 108.4568817  20.4355078  47.1493410
  99.6675183  14.4298921  44.5460099  99.9183221  15.3145931  44.8117675
 100.2034731  14.2503522  43.7735191 108.8805910  22.7325820  36.8890080
 108.7451585  23.5777356  37.3174928 109.4215723  22.9345098  36.1256014
 102.3335308  20.2501258  37.4618005 102.8459828  21.0444509  37.6123570
 102.9858021  19.5527549  37.3951607 104.1430192  23.3667015  39.5440759
 104.3196821  24.2884979  39.3561743 104.9387026  23.0525434  39.9735138
 103.4282549  15.4131646  49.4202922 103.3136064  14.5116904  49.7210021
 102.5727067  15.6595343  49.0687738 105.2661508  24.8845188  45.5451101
 105.8168933  24.7562252  44.7728095 104.4272984  25.1840077  45.1945994
 109.0628679  21.1496316  49.8895332 109.5957016  20.3884604  49.6594640
 108.5342760  20.8569968  50.6319487 100.2984225  18.5789913  38.2377576
 101.1359447  18.9886921  38.0211284 100.4762492  17.6389355  38.2077770
 110.4281392  20.2782309  37.4014144 109.9002753  19.5435068  37.0887382
 109.9268894  21.0556985  37.1554112 109.7522225  18.1975114  34.9273107
 108.8433445  17.9134147  35.0245577 109.7817309  18.6174192  34.0676414
 100.3210396  15.9180628  38.9088309 100.1234795  15.3249989  38.1839376
  99.7657060  15.6132838  39.6264248 109.4498313  19.7383857  32.2661186
 109.0117743  19.0219716  31.8066823 110.1908754  19.9659972  31.7046277
 108.3908057  24.4238551  40.7207546 108.3484236  24.6499397  39.7916078
 109.3070756  24.1901926  40.8693347 106.5073858  21.3001580  40.5169509
 107.3014456  20.8051900  40.3152084 105.7965550  20.7719443  40.1537214
 102.8156621  15.4444662  36.5929262 101.8854209  15.3829117  36.8099224
 102.9114093  14.9220615  35.7965903 109.0845134  21.8730602  44.1967346
 108.9456220  21.5049386  45.0693284 108.2959730  22.3878242  44.0251304
 109.6793286  26.9739699  35.5392882 109.8545042  26.5027742  36.3538505
 108.9926074  27.6005465  35.7674143 104.6094593  16.6579835  47.1108765
 104.4714391  15.9260074  47.7120304 105.5199516  16.5688735  46.8292953
 107.2376894  16.3699794  46.5992445 107.9476512  15.7292986  46.5579063
 107.1946202  16.6212689  47.5218625 104.2454371  30.1229061  42.3132743
 104.4850969  30.7547585  42.9911761 103.4023568  29.7717101  42.5998102
  96.8810227  17.6030823  41.0756055  97.5681267  17.2892553  40.4877070
  96.7258355  18.5072188  40.8023306 108.7582233  25.9308184  44.7174247
 108.6852404  26.7363155  45.2293551 108.3159626  26.1300150  43.8922268
 108.5472013  25.1679954  38.2277068 107.7639535  25.7101634  38.3215293
 109.2464758  25.6853933  38.6271309 106.2692830  23.5789461  47.6937976
 106.9702290  24.2125944  47.8467370 105.7987945  23.9204193  46.9333615
 101.8660548  23.1125816  44.6269079 102.4513985  22.3669504  44.7596983
 101.6685387  23.4229773  45.5105743 104.7199203  26.1477064  39.6431521
 104.0509579  26.6323191  39.1595561 104.5812073  26.3946284  40.5574900
  96.4578203  15.6831417  43.3473522  96.4962302  15.1495007  44.1410640
  95.9518496  15.1566622  42.7284499 108.8604472  28.1820807  46.2414180
 109.4122780  28.3452429  47.0063265 109.2010665  28.7725245  45.5694204
 100.0886780  14.4095519  36.4227453 100.3840222  13.5006197  36.3694507
  99.1874816  14.3883258  36.1008456 100.2760599  17.0793414  45.5652287
  99.7314067  17.8553222  45.6972561 101.1539949  17.4264219  45.4071408
 101.0626621  16.2063311  48.4582444 100.3208357  16.3545946  49.0447074
 100.7419365  16.4671576  47.5949193 109.0070283  25.7479289  48.2562834
 109.3157410  25.5028436  49.1285533 109.8045765  25.9525927  47.7681704
 109.0290895  27.9017198  40.4868210 108.5895886  27.4093577  41.1801067
 109.7799012  27.3590166  40.2460286 101.5083234  24.0928739  40.4892839
 102.3341254  23.7932511  40.1091482 101.1577286  23.3236362  40.9382627
 106.4764767  23.4455208  42.5590512 105.8544777  22.7825913  42.2592740
 107.1469634  23.4716339  41.8764160  99.7091839  22.0115066  41.4481772
  98.8723748  21.5837240  41.2665773  99.6815485  22.2047509  42.3852563
 106.0378274  21.9959131  36.0348973 106.1866395  22.6794595  35.3815645
 106.8444718  21.9764221  36.5498428 103.7930907  18.0224309  37.0410042
 103.5476949  17.1186639  37.2390252 103.9626822  18.0241459  36.0989520
 109.5373680  24.4907261  33.5060720 108.9647647  25.1097448  33.0531192
 110.1106474  25.0406623  34.0400642  99.0241336  15.0724414  41.2330704
  98.7044120  14.2189722  40.9405078  98.4774764  15.2872992  41.9888672
 102.8021243  17.7886855  44.9500211 103.0207253  18.7203963  44.9688245
 103.2147017  17.4294829  45.7355015  98.8929596  18.6927325  43.2023826
  98.1993067  18.2781278  42.6893780  99.6402587  18.7347862  42.6057245
 107.5380379  16.7917199  53.1568021 107.0547461  17.5917560  53.3631910
 107.6241318  16.8025144  52.2035465 100.8066338  18.6245579  41.0789841
 100.7837027  18.7233266  40.1271724 101.1166975  19.4710730  41.4007007
 103.4653716  20.6821734  45.1936455 104.4196970  20.6505677  45.1266387
 103.2666240  20.2212358  46.0086681 104.0553098  19.2522850  47.7607253
 104.8745987  19.7466929  47.7842090 104.3289906  18.3354818  47.7324820
 101.8203945  26.2241354  42.2106653 101.6858413  25.4641755  41.6444651
 101.4036007  26.9482254  41.7435442 104.9773071  27.1210671  42.4225096
 104.8605455  28.0656103  42.3203786 104.1565517  26.8184232  42.8110895
  99.3088013  13.5860984  48.4599450  99.9546876  13.0759938  48.9486675
  99.1005164  14.3229666  49.0342875 106.0027585  27.7738933  45.6381024
 106.9054832  27.8062543  45.9547519 105.7764955  26.8439384  45.6527360
 107.7581187  26.5269919  42.2991103 106.8076818  26.5271781  42.1855475
 108.0613673  25.7802654  41.7827137 107.7203981  32.9322741  41.0756055
 108.4075021  32.6184471  40.4877070 107.5652110  33.8364105  40.8023306
 107.2971957  31.0123334  43.3473522 107.3356057  30.4786925  44.1410640
 106.7912250  30.4858540  42.7284499 109.8635090  30.4016332  41.2330704
 109.5437875  29.5481640  40.9405078 109.3168519  30.6164910  41.9888672
 109.7323350  34.0219243  43.2023826 109.0386822  33.6073196  42.6893780
 110.4796341  34.0639780  42.6057245  13.9258274  49.7997907  99.7019267
  13.2519973  50.1029604 100.3104225  14.3124096  50.6026987  99.3524724
  17.8915015  47.3783391 100.9759090  18.5865919  47.9990083 101.1946405
  18.2338165  46.5278742 101.2511468  11.9829883  47.4845142  99.8834184
  11.4103850  48.1035329  99.4304656  12.5562677  48.0344504 100.4174106
  15.2027143  47.7682292 101.0142766  16.1357816  47.7027854 101.2175642
  15.1150356  48.6038559 100.5557299  17.8315160  47.0848163  97.9746714
  17.7528791  46.7508026  98.8682472  18.6524826  47.5769931  97.9738186
  15.4019111  44.4016158  97.5956692  16.1054962  44.6066161  98.2114348
  14.6781760  44.9692920  97.8605775  17.3105809  44.8398687  99.6455152
  18.1451413  44.4079886  99.4632627  17.1490152  44.6680701 100.5732046
  25.9390084  55.3568338 109.7410329  26.5768494  55.2375086 109.0373669
  25.8210927  56.3049182 109.7998281  18.6066606  57.1631243 105.6668744
  18.0431471  57.0721180 104.8985032  18.4919001  56.3431147 106.1471237
  24.1866165  60.8302211 100.9783209  23.5354144  61.4156291 100.5917223
  24.9810527  61.3608406 101.0378247  18.1121792  57.9191348 101.3770344
  18.8852668  57.3720335 101.2383219  18.4647191  58.7835597 101.5884805
  20.4488070  54.0784014  99.0088794  20.7013590  53.5565535  98.2472257
  19.5112629  53.9150159  99.1115477  25.4931352  53.0819792 106.8163537
  26.2794442  52.6639215 106.4653954  25.7570057  53.9865885 106.9845185
  25.6641430  58.5192643 101.5152194  25.0287263  58.5927269 102.2273098
  25.3338836  59.1086241 100.8371273  30.8939780  53.0195026 107.7196515
  31.6264951  52.4494242 107.9534345  30.1379135  52.6316626 108.1603021
  20.1684358  55.9812120 101.2113169  20.0520616  55.3057023 101.8794253
  20.2786618  55.4944494 100.3945322  22.5115899  55.4422267 104.9159858
  22.1474106  54.9152888 105.6272779  23.3683015  55.0520736 104.7426343
  22.1521386  50.4712167  99.9121206  22.3195789  51.3392403 100.2791677
  21.9618555  50.6339448  98.9882496  22.1310607  52.9269824 100.8967873
  22.0110232  53.3726875 101.7353353  21.4363195  53.2755142 100.3381411
  19.8917499  65.6973466 104.5458004  19.8141529  66.6481291 104.6246485
  19.2879143  65.3519338 105.2032931  27.8295673  53.3991297 101.7248207
  28.7413529  53.6318684 101.5495905  27.3205320  53.9828342 101.1623286
  26.4365256  58.3817116 109.1161789  25.8074118  58.5462830 108.4137856
  26.0490918  58.7958725 109.8872753  30.3154487  59.3171554 106.4706152
  29.6305526  59.6970455 105.9203186  30.3998337  59.9266880 107.2038100
  21.9893217  58.1191524 106.3811874  22.4531563  58.3979227 105.5916496
  21.7250016  57.2174969 106.1984964  20.9262104  54.2414676 103.1901439
  21.6286147  54.6935720 103.6575365  20.5942732  53.5998495 103.8181332
  28.6851247  59.8403468 111.2423853  29.5068691  59.4383655 110.9606535
  28.6813650  59.7371702 112.1939969  36.7757240  56.1842217 107.5908825
  36.0220948  55.6149615 107.4352829  36.9104781  56.1504881 108.5379459
  22.1655868  61.0555619 103.2663544  22.0301543  61.9007155 103.6948392
  22.7065681  61.2574897 102.5029478  15.6185266  58.5731057 103.8391469
  16.1309786  59.3674307 103.9897034  16.2707978  57.8757347 103.7725071
  17.4280150  61.6896813 105.9214222  17.6046779  62.6114778 105.7335206
  18.2236984  61.3755232 106.3508602  13.5834182  56.9019711 104.6151040
  14.4209404  57.3116720 104.3984747  13.7612450  55.9619153 104.5851234
  25.4798614  54.5694792 100.3034873  24.9645238  55.3399397 100.5423260
  25.2075923  53.8959928 100.9267934  23.0645725  49.4144493 105.3620111
  22.2087322  49.0251343 105.1825750  23.4772677  49.4936453 104.5019897
  30.4532889  57.3227147 102.2388046  29.6762331  56.9838306 101.7943208
  31.1324370  57.3279770 101.5643011  25.2684918  52.4421884 102.1294654
  24.9635053  52.7568033 102.9804797  26.2215360  52.5203304 102.1721987
  23.7131349  58.6012107 103.7787608  23.1852711  57.8664867 103.4660845
  23.2118852  59.3786784 103.5327576  28.6924195  56.7961128 108.8954654
  28.0347870  57.4860389 108.9834783  29.4964595  57.1857560 109.2388640
  27.5029654  55.1505501 106.9458596  28.0161536  55.7835492 107.4480306
  28.1530878  54.5506696 106.5801956  18.7719664  51.2936235 100.1590105
  17.9356976  51.6310921 100.4799379  18.6324434  51.1585214  99.2217242
  21.8583950  56.4192318  96.7822581  20.9511011  56.1881571  96.9813730
  22.3554982  55.6229937  96.9696562  24.7652029  65.1289825  99.7019267
  24.0913727  65.4321522 100.3104225  25.1517850  65.9318905  99.3524724
  24.7645533  54.0246372 104.3219617  25.5117352  54.5367769 104.0126739
  25.0337122  53.7030424 105.1824010  23.0372183  56.5204912 101.3046571
  22.1283402  56.2363945 101.4019041  23.0667267  56.9403991 100.4449878
  28.2691450  60.1311502 105.0737739  27.8153778  59.2902412 105.1302929
  27.6385417  60.7672900 105.4112519  27.2124370  51.0603488 106.3038406
  26.4747127  50.5480874 106.6348649  27.4651144  50.6203870 105.4921683
  26.7124390  61.9687999 106.0087557  27.0047364  62.5293056 105.2899922
  27.2223010  62.2616560 106.7640716  22.7348271  58.0613656  98.6434650
  22.2967701  57.3449515  98.1840287  23.4758712  58.2889771  98.0819741
  19.5249437  52.7510593 105.1646745  18.7117303  53.0504763 105.5711937
  20.0208431  52.3566282 105.8821227  21.6758015  62.7468350 107.0981010
  21.6334194  62.9729196 106.1689542  22.5920714  62.5131724 107.2466811
  30.8521386  56.3370853 104.7010968  30.7139284  56.5272449 103.7732157
  30.4957604  57.0990236 105.1579019  30.8790765  58.4047380 109.7122240
  31.3127272  58.3122669 110.5605294  31.5922346  58.3804881 109.0742256
  19.7923816  59.6231379 106.8942973  20.5864414  59.1281699 106.6925548
  19.0815508  59.0949242 106.5310678  24.6118660  62.0049474 111.2455340
  24.6655682  62.5740411 112.0133056  23.7433442  62.1751359 110.8809377
  16.1006579  53.7674460 102.9702725  15.1704167  53.7058916 103.1872687
  16.1964051  53.2450413 102.1739367  31.7406315  58.4471081 112.2455125
  31.9342205  59.3516891 112.4914400  31.6406933  57.9878500 113.0793710
  22.3695092  60.1960401 110.5740810  22.2306177  59.8279185 111.4466748
  21.5809688  60.7108040 110.4024767  22.9643244  65.2969497 101.9166346
  23.1394999  64.8257540 102.7311969  22.2776032  65.9235263 102.1447607
  23.9200307  59.5742003 107.9629647  23.5850139  59.5342773 108.8587297
  23.4204253  58.9086719 107.4900058  26.8559498  56.9198038  98.2366707
  26.2388669  56.1944866  98.1399760  26.3875987  57.6807398  97.8933781
  18.6458044  51.1383462  97.3588011  17.7687511  51.0172263  96.9950258
  19.1215797  50.3469540  97.1066900  22.0432191  64.2537982 111.0947710
  21.9702362  65.0592954 111.6067015  21.6009584  64.4529948 110.2695732
  21.8321970  63.4909752 104.6050532  21.0489492  64.0331433 104.6988756
  22.5314716  64.0083732 105.0044773  32.9948378  55.0044747 108.8903029
  32.9838254  55.8869463 108.5196962  32.1265757  54.6516298 108.6957566
  24.5030874  64.1524816 113.2505869  25.2158847  64.7872281 113.1781770
  24.0120903  64.2488682 112.4345871  26.2248401  58.0576069 104.8223161
  25.2904680  58.1777532 104.6527865  26.4025070  57.1548536 104.5583171
  29.6120953  53.8993388 105.3573195  30.0781405  54.7321380 105.2833497
  30.0628453  53.4338370 106.0618453  27.6797184  60.2437210 102.3559347
  27.9557028  60.1293804 103.2653221  26.8101682  59.8454695 102.3171520
  24.3151248  64.4923561 105.9992160  24.4973642  63.6745216 106.4619913
  25.1384234  64.7091253 105.5617050  24.6493413  63.4191746 103.2607209
  25.1781180  62.9084200 102.6477371  24.9121633  63.1034276 104.1252742
  18.0049161  64.4706862 106.0204985  17.3359536  64.9552990 105.5369025
  17.8662031  64.7176083 106.9348363  13.3736738  52.7325317 102.8000917
  13.6690179  51.8235996 102.7467971  12.4724774  52.7113057 102.4781919
  25.2822817  64.4532581 109.6051325  25.1573956  63.6522321 109.0962271
  25.9401908  64.9478775 109.1165295  27.3457725  62.2541601 111.2330875
  26.3988061  62.1346953 111.1609202  27.6940498  61.3664100 111.3157137
  24.3504159  62.0494318 107.4335228  24.2029121  61.1211025 107.6142798
  25.1757652  62.0714408 106.9492303  18.2166403  50.7012385 103.2915720
  18.5562475  51.2298306 102.5694328  18.6638523  51.0392791 104.0674286
  27.9538281  62.8722876 108.5200100  28.8784828  62.6665738 108.3824552
  27.7853584  62.6239278 109.4289442  20.2034550  49.1987006 101.4909013
  20.9242913  49.5768259 100.9872729  19.5799854  49.9175883 101.5943991
  24.3465673  49.9032155 102.4267345  24.5629287  50.7856793 102.1256173
  23.8659740  49.5118369 101.6972987  27.7433597  63.3908544 103.8762192
  27.9170474  62.8254966 103.1236044  28.2362488  64.1909439 103.6941682
  33.5972988  56.1544967 105.4952492  34.0404134  55.4052292 105.0971615
  32.7199498  56.1455103 105.1126224  28.7308769  62.7075308 100.9759090
  29.4259674  63.3282001 101.1946405  29.0731919  61.8570660 101.2511468
  30.6300192  60.1575014 102.5046421  31.1551516  60.4962287 101.7795741
  30.5422545  59.2222029 102.3209556  22.3140853  66.2246997 106.8641674
  21.8745843  65.7323376 107.5574531  23.0648970  65.6819965 106.6233749
  14.7933192  62.4158538 106.8666302  15.6191212  62.1162310 106.4864946
  14.4427244  61.6466160 107.3156091  19.7614725  61.7685006 108.9363976
  19.1394735  61.1055711 108.6366204  20.4319592  61.7946138 108.2537624
  19.3228232  60.3188930 102.4122436  19.4716353  61.0024394 101.7589109
  20.1294676  60.2994020 102.9271892  33.1405853  57.6250205 107.8874939
  33.9752744  58.0640009 108.0512500  33.2764981  57.1488858 107.0683185
  17.0780865  56.3454107 103.4183505  16.8326907  55.4416437 103.6163715
  17.2476780  56.3471258 102.4762983  16.3476513  52.0782465 100.9169667
  15.6545758  52.1526820 100.2609703  16.1028265  51.3142808 101.4391184
  22.8223638  62.8137060  99.8834184  22.2497605  63.4327247  99.4304656
  23.3956431  63.3636422 100.4174106  26.0420897  63.0974210 101.0142766
  26.9751571  63.0319772 101.2175642  25.9544110  63.9330477 100.5557299
  28.6708914  62.4140080  97.9746714  28.5922546  62.0799944  98.8682472
  29.4918581  62.9061848  97.9738186  31.3687105  55.2801820 111.1823032
  31.3363425  54.3417820 111.3682716  31.9787729  55.3585856 110.4488857
  23.2070436  54.1497873  97.2250236  24.1529541  54.0204081  97.2938654
  22.8284681  53.4112535  97.7019664  37.1863655  56.3417827 110.3229069
  37.9167044  56.0803115 110.8836772  36.5770601  55.6046549 110.3631137
  35.2678952  54.4825689 110.9203520  34.5412116  54.3481654 110.3120012
  34.8526239  54.7902518 111.7260238  21.3913353  52.0747849  97.1605122
  20.4844809  51.7780962  97.2367835  21.6689334  51.7777667  96.2939408
  23.0075419  46.6184739 103.3149363  22.1976147  46.2731824 103.6904609
  23.6959836  46.3092283 103.9036974  20.1612138  48.9334784  97.3017101
  21.0231302  49.2589683  97.5612918  20.3462482  48.1466280  96.7890167
  28.3144774  47.8063311 104.4452324  27.7343443  48.4648115 104.0630376
  28.0480707  46.9840655 104.0339741  27.0969652  49.9663401 103.5008672
  26.2095507  50.2513052 103.2828867  27.5123642  49.8057165 102.6535949
  30.4484189  49.9909922 107.2163011  31.2244579  50.4806375 107.4887628
  29.7232323  50.4167976 107.6734881  32.8856747  50.7037541 108.2736952
  33.4801238  50.4633277 107.5630260  32.9583331  49.9844672 108.9010488
  26.2412866  59.7308076  97.5956692  26.9448716  59.9358078  98.2114348
  25.5175515  60.2984838  97.8605775  27.0710676  55.4817937 103.7158962
  27.0145878  55.9386489 102.8766595  27.6239019  54.7208622 103.5381805
  30.8815482  51.2707669 104.5409082  30.6252416  50.8704305 105.3717289
  30.2568350  51.9851463 104.4159221  35.1927820  54.0103742 107.0480373
  34.6327378  54.0796932 107.8211935  34.5871323  53.8344727 106.3279869
  28.1499563  60.1690605  99.6455152  28.9845167  59.7371804  99.4632627
  27.9883906  59.9972619 100.5732046  27.8045456  56.6722718 101.0111491
  27.7494259  56.5066990 100.0699935  27.1791511  57.3798751 101.1673681
  21.1141581  46.1730827 100.5896810  21.1020251  47.1172667 100.7465081
  22.0065003  45.9900973 100.2956271  21.0431145  64.8499718 108.6764566
  20.0926776  64.8501579 108.5628939  21.3463631  64.1032452 108.1600601
  36.7783838  70.6860256 109.7410329  37.4162248  70.5667004 109.0373669
  36.6604681  71.6341100 109.7998281  33.5873545  70.6387684 109.6771853
  33.2492056  70.5228749 108.7892388  34.4563313  70.2378849 109.6572860
  29.4460360  72.4923161 105.6668744  28.8825226  72.4013098 104.8985032
  29.3312755  71.6723065 106.1471237  34.0693328  71.7922536 115.6358059
  34.0581968  71.3975334 114.7638563  34.2313967  71.0588609 116.2291830
  26.9924792  73.9874352 108.5052965  27.7846084  73.6465177 108.0899264
  27.2321442  74.0969327 109.4255118  35.0259919  76.1594128 100.9783209
  34.3747899  76.7448209 100.5917223  35.8204282  76.6900323 101.0378247
  28.9515546  73.2483266 101.3770344  29.7246422  72.7012253 101.2383219
  29.3040945  74.1127515 101.5884805  31.7156796  71.9536496 111.1738603
  32.3120368  71.7292519 110.4595566  31.7731767  71.2121242 111.7764050
  31.2881824  69.4075932  99.0088794  31.5407345  68.8857453  98.2472257
  30.3506383  69.2442077  99.1115477  36.3325107  68.4111710 106.8163537
  37.1188196  67.9931133 106.4653954  36.5963811  69.3157802 106.9845185
  36.5035184  73.8484560 101.5152194  35.8681017  73.9219187 102.2273098
  36.1732591  74.4378159 100.8371273  41.7333534  68.3486943 107.7196515
  42.4658706  67.7786160 107.9534345  40.9772890  67.9608544 108.1603021
  31.0078113  71.3104038 101.2113169  30.8914371  70.6348941 101.8794253
  31.1180373  70.8236412 100.3945322  33.3509654  70.7714185 104.9159858
  32.9867861  70.2444806 105.6272779  34.2076770  70.3812654 104.7426343
  39.2558954  62.0608517 112.1791124  38.9242279  62.9303928 111.9552339
  38.6604568  61.7444801 112.8585154  32.9915141  65.8004084  99.9121206
  33.1589543  66.6684321 100.2791677  32.8012310  65.9631366  98.9882496
  35.7490474  74.2621063 111.5787037  35.4491197  75.1646102 111.4702844
  35.4041533  73.9953247 112.4308190  29.2002955  70.7134860 107.6123741
  28.2753452  70.5811074 107.8201433  29.4487369  71.4929079 108.1093683
  39.1487618  66.7803603 109.2584474  38.2404495  66.7119012 108.9643235
  39.0975213  67.2575548 110.0866299  32.9704362  68.2561742 100.8967873
  32.8503987  68.7018793 101.7353353  32.2756950  68.6047060 100.3381411
  26.5611766  70.3568134 108.4467530  26.6904148  70.6102613 109.3606942
  25.8809218  70.9495842 108.1272185  30.7311254  81.0265384 104.5458004
  30.6535283  81.9773209 104.6246485  30.1272897  80.6811256 105.2032931
  33.2228483  68.1993249 117.2019371  32.4461818  68.7587169 117.1922236
  33.8619047  68.6850032 117.7234241  41.0149264  64.9820042 111.0362348
  40.3723644  65.2752575 110.3902142  40.5104193  64.8672962 111.8415545
  38.6689428  68.7283215 101.7248207  39.5807284  68.9610602 101.5495905
  38.1599075  69.3120259 101.1623286  36.9530195  73.1507843 115.3609500
  37.3613551  72.7090253 114.6164132  36.2307457  72.5760470 115.6143693
  33.3061265  68.0880450 112.7343057  34.1522461  68.5119863 112.8777706
  33.2459903  67.4314074 113.4281620  37.2759010  73.7109034 109.1161789
  36.6467873  73.8754748 108.4137856  36.8884672  74.1250643 109.8872753
  41.1548242  74.6463471 106.4706152  40.4699280  75.0262373 105.9203186
  41.2392091  75.2558798 107.2038100  36.4560711  65.7484818 114.3924230
  36.2121643  66.5026879 113.8558506  36.7320641  66.1270166 115.2271477
  38.4099174  72.2923430 113.0701496  38.6216069  72.9355190 112.3935877
  38.3628922  71.4585747 112.6023426  36.0125403  64.9041251 109.9738068
  35.1509882  65.2022505 110.2654806  36.0387837  65.1211650 109.0419101
  32.8286972  73.4483442 106.3811874  33.2925317  73.7271145 105.5916496
  32.5643770  72.5466886 106.1984964  29.7211053  72.9954923 109.3191637
  30.2912410  73.4242192 108.6809121  30.3119165  72.7137508 110.0175823
  31.7655858  69.5706594 103.1901439  32.4679901  70.0227638 103.6575365
  31.4336487  68.9290413 103.8181332  25.5081192  67.8290147 108.4918572
  24.7180246  68.0847675 108.0158683  25.9992439  68.6438485 108.5970613
  39.5245002  75.1695386 111.2423853  40.3462445  74.7675573 110.9606535
  39.5207404  75.0663620 112.1939969  27.4595937  68.1934726 105.4502049
  26.6627101  68.3053420 105.9685545  27.2321530  68.5321378 104.5842940
  33.2901605  74.7179429 113.3984564  33.3546037  75.1799836 114.2342736
  32.5812529  74.0876794 113.5266874  23.7918895  68.0820637 110.9233563
  24.0426933  68.9667647 111.1891139  24.3278443  67.9025239 110.1508655
  47.6150995  71.5134134 107.5908825  46.8614703  70.9441532 107.4352829
  47.7498536  71.4796799 108.5379459  33.0049623  76.3847537 103.2663544
  32.8695297  77.2299072 103.6948392  33.5459435  76.5866814 102.5029478
  26.4579020  73.9022975 103.8391469  26.9703541  74.6966225 103.9897034
  27.1101733  73.2049265 103.7725071  28.2673905  77.0188731 105.9214222
  28.4440533  77.9406696 105.7335206  29.0630738  76.7047150 106.3508602
  32.4084923  63.8796996 117.5198156  33.1494637  64.4804149 117.4402618
  32.6402846  63.1374633 116.9616198  36.7299337  77.2873903 115.4245287
  36.7117812  78.1082784 114.9325557  37.6519257  77.1627978 115.6495429
  36.3542086  59.9078098 111.7962438  36.0106356  60.7979740 111.7201548
  36.7221049  59.7179756 110.9332023  24.4227937  72.2311629 104.6151040
  25.2603159  72.6408637 104.3984747  24.6006204  71.2911071 104.5851234
  36.3192369  69.8986710 100.3034873  35.8038992  70.6691314 100.5423260
  36.0469677  69.2251846 100.9267934  33.9039480  64.7436410 105.3620111
  33.0481076  64.3543261 105.1825750  34.3166432  64.8228371 104.5019897
  35.4338627  62.2782754 109.7611671  34.9303422  62.2412889 108.9479476
  35.7269233  63.1875496 109.8208327  31.6781512  62.3621483 108.7677853
  32.5434509  62.1664292 108.4083742  31.7459021  62.1331835 109.6947209
  41.2926643  72.6519064 102.2388046  40.5156086  72.3130224 101.7943208
  41.9718124  72.6571687 101.5643011  36.1078672  67.7713802 102.1294654
  35.8028808  68.0859951 102.9804797  37.0609114  67.8495222 102.1721987
  34.5525104  73.9304025 103.7787608  34.0246466  73.1956785 103.4660845
  34.0512607  74.7078701 103.5327576  39.5317950  72.1253045 108.8954654
  38.8741624  72.8152307 108.9834783  40.3358349  72.5149477 109.2388640
  29.2843832  64.5923691 106.1394219  29.8587583  64.3698873 105.4067412
  29.8714814  64.6612386 106.8922821  38.3423409  70.4797418 106.9458596
  38.8555291  71.1127410 107.4480306  38.9924633  69.8798614 106.5801956
  29.6113419  66.6228152 100.1590105  28.7750731  66.9602839 100.4799379
  29.4718188  66.4877132  99.2217242  31.5866499  61.4664940 104.8669289
  30.9330912  61.1513957 104.2425904  31.5446973  60.8440681 105.5929112
  32.6977704  71.7484235  96.7822581  31.7904766  71.5173489  96.9813730
  33.1948736  70.9521855  96.9696562  35.6045783  80.4581742  99.7019267
  34.9307482  80.7613439 100.3104225  35.9911605  81.2610823  99.3524724
  34.8204240  67.9546874 109.1916936  33.9026801  68.1761821 109.0338624
  35.2364383  68.0293184 108.3328644  35.6039287  69.3538289 104.3219617
  36.3511106  69.8659687 104.0126739  35.8730877  69.0322342 105.1824010
  33.8765938  71.8496830 101.3046571  32.9677157  71.5655863 101.4019041
  33.9061021  72.2695909 100.4449878  39.1085205  75.4603420 105.0737739
  38.6547532  74.6194330 105.1302929  38.4779172  76.0964818 105.4112519
  38.0518125  66.3895406 106.3038406  37.3140881  65.8772792 106.6348649
  38.3044898  65.9495787 105.4921683  37.5518144  77.2979916 106.0087557
  37.8441119  77.8584973 105.2899922  38.0616765  77.5908477 106.7640716
  38.1529752  59.1671658 106.8980175  38.4588629  58.3069021 106.6106090
  38.8782357  59.7589278 106.6979169  24.4454108  69.5702344 105.2861773
  24.2478508  68.9771705 104.5612840  23.8900772  69.2654554 106.0037712
  32.4250832  69.4625451 107.4056366  32.4799441  68.5099287 107.3298843
  31.6142034  69.6184890 107.8897665  33.5742025  73.3905574  98.6434650
  33.1361455  72.6741433  98.1840287  34.3152466  73.6181689  98.0819741
  30.3643192  68.0802510 105.1646745  29.5511057  68.3796681 105.5711937
  30.8602186  67.6858199 105.8821227  32.5151769  78.0760267 107.0981010
  32.4727948  78.3021114 106.1689542  33.4314468  77.8423642 107.2466811
  35.9617403  68.5444335 113.9961639  36.3166791  68.7715808 114.8556105
  36.6089534  68.8762712 113.3738894  41.6915140  71.6662771 104.7010968
  41.5533039  71.8564367 103.7732157  41.3351359  72.4282154 105.1579019
  29.8557266  65.6520866 110.7807980  30.4956646  65.5109625 110.0830943
  29.0234797  65.3655379 110.4046582  41.7184520  73.7339298 109.7122240
  42.1521026  73.6414587 110.5605294  42.4316100  73.7096798 109.0742256
  30.6317570  74.9523296 106.8942973  31.4258169  74.4573617 106.6925548
  29.9209263  74.4241160 106.5310678  35.4512415  77.3341392 111.2455340
  35.5049437  77.9032328 112.0133056  34.5827196  77.5043277 110.8809377
  26.9400334  69.0966378 102.9702725  26.0097922  69.0350834 103.1872687
  27.0357806  68.5742331 102.1739367  26.8585883  65.6221191 105.5580967
  27.1192700  66.5366524 105.4490127  27.6803055  65.1545634 105.7077580
  28.3310808  67.0358948 112.7279791  29.0033861  66.8276310 112.0792440
  27.5040595  66.8381034 112.2885024  42.5800069  73.7762999 112.2455125
  42.7735959  74.6808809 112.4914400  42.4800687  73.3170418 113.0793710
  34.2336380  63.6620889 114.7445452  33.5864295  64.3610839 114.6509929
  35.0037395  64.0957033 115.1121701  37.6415178  73.9269741 117.8196006
  37.4900684  73.6980293 116.9026089  37.6319857  74.8840343 117.8327351
  34.4100514  71.5001654 112.8042272  35.3392574  71.6512814 112.6311239
  33.9891544  71.5885675 111.9490919  33.2088846  75.5252318 110.5740810
  33.0699932  75.1571103 111.4466748  32.4203442  76.0399958 110.4024767
  33.8036998  80.6261415 101.9166346  33.9788754  80.1549458 102.7311969
  33.1169786  81.2527181 102.1447607  34.7594061  74.9033921 107.9629647
  34.4243894  74.8634691 108.8587297  34.2598007  74.2378637 107.4900058
  28.7338305  70.3101551 113.4882229  28.5958103  69.5781790 114.0893768
  29.6443229  70.2210451 113.2066416  37.6953253  72.2489955  98.2366707
  37.0782424  71.5236784  98.1399760  37.2269741  73.0099316  97.8933781
  31.3620606  70.0221510 112.9765908  32.0720224  69.3814703 112.9352527
  31.3189914  70.2734405 113.8992089  39.3507385  76.9588864 115.8972487
  39.2919931  76.2748084 115.2303070  39.7526903  77.7007854 115.4453113
  30.0749540  67.0086728 114.7961548  29.5386897  66.5577467 115.4483144
  29.4866248  67.1432637 114.0532012  29.4851799  66.4675380  97.3588011
  28.6081265  66.3464181  96.9950258  29.9609552  65.6761458  97.1066900
  39.3524792  74.9228448 114.1286467  38.4651571  74.5854370 114.2512866
  39.9223343  74.1911479 114.3655233  25.8088661  66.1442736 111.8814542
  25.7246850  65.5368406 111.1464952  24.9871368  66.6351754 111.8824039
  32.8825945  79.5829900 111.0947710  32.8096117  80.3884872 111.6067015
  32.4403338  79.7821866 110.2695732  32.6715725  78.8201670 104.6050532
  31.8883247  79.3623350 104.6988756  33.3708470  79.3375650 105.0044773
  35.9812375  64.6296300 107.2484737  36.4781075  63.8766262 106.9285808
  35.2099357  64.6660616 106.6827947  43.8342132  70.3336665 108.8903029
  43.8232009  71.2161381 108.5196962  42.9659512  69.9808216 108.6957566
  35.3424629  79.4816734 113.2505869  36.0552601  80.1164199 113.1781770
  34.8514657  79.5780600 112.4345871  37.0642156  73.3867987 104.8223161
  36.1298434  73.5069449 104.6527865  37.2418824  72.4840454 104.5583171
  32.5647344  66.7713683 106.9756422  32.1945131  66.2184723 107.6637327
  33.0606436  66.1671816 106.4231422  40.4514707  69.2285306 105.3573195
  40.9175159  70.0613298 105.2833497  40.9022208  68.7630288 106.0618453
  38.5190938  75.5729127 102.3559347  38.7950782  75.4585722 103.2653221
  37.6495437  75.1746612 102.3171520  38.4231370  61.5965893 109.3964096
  37.5094450  61.8270120 109.5646303  38.8524471  61.6804337 110.2478129
  38.1937828  69.7855785 111.8963990  37.5409279  70.0331692 111.2416443
  38.5718208  68.9719923 111.5626467  35.1545002  79.8215478 105.9992160
  35.3367397  79.0037134 106.4619913  35.9777988  80.0383170 105.5617050
  35.4887168  78.7483663 103.2607209  36.0174934  78.2376118 102.6477371
  35.7515387  78.4326194 104.1252742  28.8442916  79.7998780 106.0204985
  28.1753291  80.2844908 105.5369025  28.7055785  80.0468000 106.9348363
  27.9612677  64.1817673 113.2209528  28.0254004  65.0432504 112.8086926
  27.8979798  63.5691675 112.4881886  24.2130493  68.0617235 102.8000917
  24.5083934  67.1527913 102.7467971  23.3118528  68.0404974 102.4781919
  36.1216571  79.7824499 109.6051325  35.9967711  78.9814239 109.0962271
  36.7795663  80.2770692 109.1165295  27.7424740  66.1373232 108.7828466
  27.0211325  66.7509199 108.6435939  28.5317995  66.6730996 108.7045112
  38.1851480  77.5833519 111.2330875  37.2381815  77.4638870 111.1609202
  38.5334253  76.6956017 111.3157137  30.5451053  63.4727658 115.0569117
  31.0685455  63.7189955 115.8195427  30.3263387  64.3047693 114.6372255
  25.9418334  65.7431333 102.9240242  25.6131040  64.8628712 102.7415348
  26.2957705  65.6879001 103.8116631  35.1897913  77.3786235 107.4335228
  35.0422876  76.4502943 107.6142798  36.0151407  77.4006326 106.9492303
  29.0560157  66.0304302 103.2915720  29.3956230  66.5590224 102.5694328
  29.5032278  66.3684709 104.0674286  38.7932035  78.2014794 108.5200100
  39.7178582  77.9957655 108.3824552  38.6247338  77.9531195 109.4289442
  31.7503598  64.4141353 112.7418788  31.4100419  63.6149166 113.1439468
  31.0442605  64.7143064 112.1695621  32.4020070  61.4990666 111.1946111
  33.2246139  61.0251144 111.0725001  32.6458134  62.2781149 111.6944797
  31.0428305  64.5278924 101.4909013  31.7636667  64.9060177 100.9872729
  30.4193609  65.2467801 101.5943991  35.1859427  65.2324073 102.4267345
  35.4023042  66.1148711 102.1256173  34.7053495  64.8410286 101.6972987
  29.9258649  68.1909786 109.0038090  29.7803230  68.5050089 109.8962371
  29.4483852  68.8094687 108.4508988  31.7855032  65.1812334 109.0518979
  31.7716601  64.2853428 108.7151277  32.5027460  65.1882998 109.6857265
  33.6381162  65.6149674 111.0972107  33.3798940  66.5366745 111.0956437
  33.1066203  65.2180109 111.7872571  38.5827351  78.7200462 103.8762192
  38.7564229  78.1546884 103.1236044  39.0756242  79.5201356 103.6941682
  31.1891928  64.0626715 104.3206549  31.3107839  63.1343361 104.5197437
  30.8993970  64.0765400 103.4084865  34.0583118  61.7481625 107.4573269
  34.0804815  61.8120958 106.5025249  34.4751177  60.9086134 107.6513775
  44.4366742  71.4836884 105.4952492  44.8797888  70.7344210 105.0971615
  43.5593253  71.4747021 105.1126224  39.5702524  78.0367226 100.9759090
  40.2653428  78.6573919 101.1946405  39.9125674  77.1862577 101.2511468
  41.4693947  75.4866931 102.5046421  41.9945271  75.8254204 101.7795741
  41.3816299  74.5513947 102.3209556  33.1534608  81.5538915 106.8641674
  32.7139598  81.0615293 107.5574531  33.9042725  81.0111882 106.6233749
  25.6326947  77.7450456 106.8666302  26.4584966  77.4454227 106.4864946
  25.2820999  76.9758078 107.3156091  30.6008480  77.0976924 108.9363976
  29.9788489  76.4347629 108.6366204  31.2713347  77.1238056 108.2537624
  41.2785728  72.9692302 115.1230347  41.3283733  72.8042309 116.0645870
  41.1699651  72.1019561 114.7328228  30.1621987  75.6480847 102.4122436
  30.3110107  76.3316312 101.7589109  30.9688430  75.6285937 102.9271892
  38.5689490  68.9523230 116.4389654  39.4699353  68.8129694 116.1473652
  38.6437465  69.1177684 117.3787832  32.9032296  66.3290084 115.2842841
  32.0335605  66.6223650 115.0125429  33.1391776  66.9130529 116.0050104
  42.7803925  75.3889243 115.3672369  42.4888733  75.7519224 116.2035830
  42.1676056  74.6756251 115.1885701  43.9799607  72.9542123 107.8874939
  44.8146498  73.3931927 108.0512500  44.1158736  72.4780776 107.0683185
  41.0291113  70.5121858 113.8352427  41.5045235  70.7049504 113.0271278
  40.1056678  70.5681043 113.5895811  27.9174620  71.6746025 103.4183505
  27.6720662  70.7708355 103.6163715  28.0870534  71.6763175 102.4762983
  35.6071330  62.5469701 112.8008261  36.1253273  63.2830728 112.4754749
  35.2526462  62.8533694 113.6355020  27.1870267  67.4074382 100.9169667
  26.4939512  67.4818737 100.2609703  26.9422019  66.6434726 101.4391184
  35.8583924  58.9669984 108.3209157  36.1385677  58.2993173 108.9469584
  36.6434531  59.1599079 107.8083821  33.6617392  78.1428978  99.8834184
  33.0891359  78.7619165  99.4304656  34.2350186  78.6928339 100.4174106
  39.7292782  67.3887618 112.0680733  40.6810205  67.4885715 112.0892957
  39.5596232  66.5965886 112.5778817  37.7507161  64.4743201 112.2540134
  37.1557094  64.7548214 111.5586622  37.4656858  64.9637102 113.0256875
  36.8814652  78.4266128 101.0142766  37.8145325  78.3611689 101.2175642
  36.7937865  79.2622395 100.5557299  39.5102669  77.7431998  97.9746714
  39.4316300  77.4091862  98.8682472  40.3312335  78.2353766  97.9738186
  42.2080860  70.6093737 111.1823032  42.1757180  69.6709738 111.3682716
  42.8181483  70.6877774 110.4488857  34.0464191  69.4789790  97.2250236
  34.9923295  69.3495999  97.2938654  33.6678436  68.7404452  97.7019664
  42.3575348  67.4004781 111.2281315  41.8414397  66.6163237 111.0411244
  43.2415297  67.0723497 111.3927835  40.0186075  61.1445796 107.1877128
  39.8210896  60.8360885 108.0720460  40.6285781  61.8707435 107.3175058
  48.0257410  71.6709744 110.3229069  48.7560798  71.4095032 110.8836772
  47.4164355  70.9338466 110.3631137  46.1072707  69.8117607 110.9203520
  45.3805870  69.6773572 110.3120012  45.6919994  70.1194435 111.7260238
  32.2307108  67.4039767  97.1605122  31.3238563  67.1072879  97.2367835
  32.5083089  67.1069585  96.2939408  23.1485048  68.7246130 107.6104168
  22.8287833  67.8711438 107.3178542  22.6018476  68.9394708 108.3662135
  26.9264956  71.4408571 111.3273674  27.1450966  72.3725679 111.3461708
  27.3390730  71.0816546 112.1128478  33.8469174  61.9476656 103.3149363
  33.0369902  61.6023741 103.6904609  34.5353590  61.6384200 103.9036974
  35.7759722  61.0254703 104.9373659  36.3290760  61.4450157 105.5963683
  36.0129808  60.0990451 104.9796615  31.0005892  64.2626702  97.3017101
  31.8625056  64.5881600  97.5612918  31.1856237  63.4758198  96.7890167
  39.1538529  63.1355228 104.4452324  38.5737198  63.7940032 104.0630376
  38.8874462  62.3132573 104.0339741  37.6042095  62.5360286 106.6473644
  38.1041874  62.6476821 105.8387963  38.2477703  62.2321339 107.2874452
  24.9310051  72.2767295 107.4563304  24.9080739  72.3754983 106.5045187
  25.2410687  73.1232446 107.7780471  37.9363407  65.2955319 103.5008672
  37.0489262  65.5804969 103.2828867  38.3517396  65.1349082 102.6535949
  41.2877943  65.3201840 107.2163011  42.0638333  65.8098292 107.4887628
  40.5626077  65.7459894 107.6734881  43.7250502  66.0329459 108.2736952
  44.3194993  65.7925195 107.5630260  43.7977085  65.3136590 108.9010488
  37.0806620  75.0599994  97.5956692  37.7842471  75.2649996  98.2114348
  36.3569269  75.6276755  97.8605775  37.9104431  70.8109855 103.7158962
  37.8539632  71.2678406 102.8766595  38.4632773  70.0500539 103.5381805
  41.7209237  66.5999587 104.5409082  41.4646171  66.1996222 105.3717289
  41.0962105  67.3143381 104.4159221  46.0321574  69.3395660 107.0480373
  45.4721132  69.4088849 107.8211935  45.4265078  69.1636645 106.3279869
  38.9893318  75.4982523  99.6455152  39.8238922  75.0663721  99.4632627
  38.8277661  75.3264536 100.5732046  38.6439210  72.0014636 101.0111491
  38.5888014  71.8358907 100.0699935  38.0185265  72.7090669 101.1673681
  31.9535335  61.5022745 100.5896810  31.9414005  62.4464585 100.7465081
  32.8458757  61.3192890 100.2956271  31.8824899  80.1791635 108.6764566
  30.9320530  80.1793497 108.5628939  32.1857386  79.4324370 108.1600601
  35.7687455  58.0965522 104.8442747  35.0019851  57.5424008 104.9899429
  36.1798160  58.1687390 105.7056898  40.2854115  87.8215078 105.6668744
  39.7218980  87.7305015 104.8985032  40.1706510  87.0014983 106.1471237
  37.8318547  89.3166270 108.5052965  38.6239839  88.9757095 108.0899264
  38.0715197  89.4261245 109.4255118  45.8653674  91.4886046 100.9783209
  45.2141653  92.0740126 100.5917223  46.6598036  92.0192241 101.0378247
  39.7909301  88.5775183 101.3770344  40.5640177  88.0304170 101.2383219
  40.1434700  89.4419433 101.5884805  42.1275579  84.7367849  99.0088794
  42.3801099  84.2149371  98.2472257  41.1900138  84.5733995  99.1115477
  47.1718861  83.7403628 106.8163537  47.9581951  83.3223051 106.4653954
  47.4357566  84.6449720 106.9845185  47.3428939  89.1776478 101.5152194
  46.7074772  89.2511105 102.2273098  47.0126345  89.7670077 100.8371273
  41.8471867  86.6395955 101.2113169  41.7308125  85.9640859 101.8794253
  41.9574127  86.1528329 100.3945322  44.1903408  86.1006102 104.9159858
  43.8261615  85.5736723 105.6272779  45.0470524  85.7104571 104.7426343
  43.8308895  81.1296002  99.9121206  43.9983298  81.9976238 100.2791677
  43.6406064  81.2923284  98.9882496  40.0396710  86.0426778 107.6123741
  39.1147206  85.9102992 107.8201433  40.2881123  86.8220997 108.1093683
  43.8098116  83.5853660 100.8967873  43.6897741  84.0310710 101.7353353
  43.1150704  83.9338977 100.3381411  37.4005521  85.6860051 108.4467530
  37.5297902  85.9394530 109.3606942  36.7202972  86.2787759 108.1272185
  49.5083182  84.0575133 101.7248207  50.4201038  84.2902520 101.5495905
  48.9992829  84.6412177 101.1623286  46.8519157  80.2333169 109.9738068
  45.9903636  80.5314422 110.2654806  46.8781592  80.4503568 109.0419101
  43.6680726  88.7775359 106.3811874  44.1319072  89.0563062 105.5916496
  43.4037525  87.8758804 106.1984964  42.6049613  84.8998512 103.1901439
  43.3073656  85.3519555 103.6575365  42.2730241  84.2582331 103.8181332
  36.3474946  83.1582064 108.4918572  35.5574000  83.4139593 108.0158683
  36.8386194  83.9730402 108.5970613  38.2989692  83.5226644 105.4502049
  37.5020855  83.6345338 105.9685545  38.0715284  83.8613296 104.5842940
  34.6312649  83.4112555 110.9233563  34.8820688  84.2959565 111.1891139
  35.1672198  83.2317156 110.1508655  43.8443377  91.7139454 103.2663544
  43.7089052  92.5590990 103.6948392  44.3853190  91.9158732 102.5029478
  37.2972775  89.2314892 103.8391469  37.8097295  90.0258143 103.9897034
  37.9495487  88.5341183 103.7725071  39.1067659  92.3480649 105.9214222
  39.2834288  93.2698613 105.7335206  39.9024493  92.0339068 106.3508602
  47.1935841  75.2370016 111.7962438  46.8500110  76.1271658 111.7201548
  47.5614803  75.0471674 110.9332023  35.2621691  87.5603547 104.6151040
  36.0996913  87.9700555 104.3984747  35.4399959  86.6202989 104.5851234
  47.1586123  85.2278627 100.3034873  46.6432747  85.9983232 100.5423260
  46.8863432  84.5543763 100.9267934  44.7433234  80.0728328 105.3620111
  43.8874831  79.6835178 105.1825750  45.1560186  80.1520289 104.5019897
  46.2732381  77.6074671 109.7611671  45.7697177  77.5704806 108.9479476
  46.5662988  78.5167414 109.8208327  42.5175267  77.6913401 108.7677853
  43.3828264  77.4956210 108.4083742  42.5852776  77.4623753 109.6947209
  52.1320398  87.9810982 102.2388046  51.3549840  87.6422141 101.7943208
  52.8111879  87.9863605 101.5643011  46.9472427  83.1005719 102.1294654
  46.6422562  83.4151869 102.9804797  47.9002869  83.1787139 102.1721987
  45.3918858  89.2595943 103.7787608  44.8640220  88.5248702 103.4660845
  44.8906361  90.0370619 103.5327576  40.1237586  79.9215609 106.1394219
  40.6981338  79.6990790 105.4067412  40.7108568  79.9904303 106.8922821
  40.4507173  81.9520070 100.1590105  39.6144485  82.2894757 100.4799379
  40.3111943  81.8169050  99.2217242  42.4260254  76.7956858 104.8669289
  41.7724666  76.4805875 104.2425904  42.3840728  76.1732598 105.5929112
  43.5371459  87.0776153  96.7822581  42.6298520  86.8465406  96.9813730
  44.0342491  86.2813772  96.9696562  46.4439537  95.7873660  99.7019267
  45.7701236  96.0905357 100.3104225  46.8305359  96.5902740  99.3524724
  45.6597994  83.2838791 109.1916936  44.7420555  83.5053738 109.0338624
  46.0758138  83.3585102 108.3328644  46.4433042  84.6830207 104.3219617
  47.1904861  85.1951604 104.0126739  46.7124631  84.3614260 105.1824010
  44.7159692  87.1788748 101.3046571  43.8070911  86.8947781 101.4019041
  44.7454776  87.5987826 100.4449878  48.8911879  81.7187323 106.3038406
  48.1534636  81.2064710 106.6348649  49.1438653  81.2787705 105.4921683
  48.9923506  74.4963575 106.8980175  49.2982383  73.6360939 106.6106090
  49.7176111  75.0881196 106.6979169  35.2847862  84.8994262 105.2861773
  35.0872262  84.3063623 104.5612840  34.7294526  84.5946472 106.0037712
  43.2644586  84.7917368 107.4056366  43.3193196  83.8391205 107.3298843
  42.4535788  84.9476808 107.8897665  44.4135780  88.7197491  98.6434650
  43.9755210  88.0033350  98.1840287  45.1546221  88.9473606  98.0819741
  41.2036946  83.4094428 105.1646745  40.3904812  83.7088599 105.5711937
  41.6995940  83.0150117 105.8821227  52.5308895  86.9954689 104.7010968
  52.3926793  87.1856284 103.7732157  52.1745113  87.7574071 105.1579019
  40.6951021  80.9812784 110.7807980  41.3350400  80.8401543 110.0830943
  39.8628551  80.6947297 110.4046582  41.4711325  90.2815214 106.8942973
  42.2651923  89.7865534 106.6925548  40.7603017  89.7533077 106.5310678
  37.7794088  84.4258296 102.9702725  36.8491676  84.3642751 103.1872687
  37.8751560  83.9034249 102.1739367  37.6979637  80.9513109 105.5580967
  37.9586454  81.8658442 105.4490127  38.5196810  80.4837551 105.7077580
  39.1704563  82.3650866 112.7279791  39.8427616  82.1568228 112.0792440
  38.3434349  82.1672952 112.2885024  44.6430753  95.9553333 101.9166346
  44.8182508  95.4841376 102.7311969  43.9563541  96.5819099 102.1447607
  48.5347007  87.5781873  98.2366707  47.9176178  86.8528701  98.1399760
  48.0663496  88.3391233  97.8933781  40.3245553  81.7967297  97.3588011
  39.4475020  81.6756098  96.9950258  40.8003306  81.0053376  97.1066900
  36.6482416  81.4734654 111.8814542  36.5640604  80.8660323 111.1464952
  35.8265122  81.9643672 111.8824039  46.8206130  79.9588217 107.2484737
  47.3174829  79.2058180 106.9285808  46.0493111  79.9952534 106.6827947
  47.9035910  88.7159904 104.8223161  46.9692189  88.8361367 104.6527865
  48.0812579  87.8132371 104.5583171  43.4041098  82.1005600 106.9756422
  43.0338886  81.5476641 107.6637327  43.9000191  81.4963734 106.4231422
  51.2908462  84.5577224 105.3573195  51.7568914  85.3905215 105.2833497
  51.7415962  84.0922205 106.0618453  49.3584693  90.9021045 102.3559347
  49.6344537  90.7877640 103.2653221  48.4889191  90.5038530 102.3171520
  49.2625124  76.9257811 109.3964096  48.3488204  77.1562038 109.5646303
  49.6918226  77.0096255 110.2478129  46.3280922  94.0775581 103.2607209
  46.8568689  93.5668036 102.6477371  46.5909142  93.7618111 104.1252742
  38.8006432  79.5109591 113.2209528  38.8647758  80.3724422 112.8086926
  38.7373552  78.8983593 112.4881886  35.0524247  83.3909153 102.8000917
  35.3477688  82.4819831 102.7467971  34.1512283  83.3696892 102.4781919
  38.5818494  81.4665149 108.7828466  37.8605080  82.0801117 108.6435939
  39.3711750  82.0022914 108.7045112  36.7812089  81.0723250 102.9240242
  36.4524795  80.1920629 102.7415348  37.1351459  81.0170919 103.8116631
  39.8953912  81.3596220 103.2915720  40.2349984  81.8882141 102.5694328
  40.3426032  81.6976626 104.0674286  42.5897353  79.7433271 112.7418788
  42.2494173  78.9441084 113.1439468  41.8836359  80.0434982 112.1695621
  43.2413825  76.8282583 111.1946111  44.0639894  76.3543061 111.0725001
  43.4851888  77.6073067 111.6944797  41.8822059  79.8570842 101.4909013
  42.6030422  80.2352095 100.9872729  41.2587363  80.5759719 101.5943991
  46.0253182  80.5615991 102.4267345  46.2416796  81.4440629 102.1256173
  45.5447249  80.1702204 101.6972987  40.7652403  83.5201704 109.0038090
  40.6196984  83.8342007 109.8962371  40.2877607  84.1386604 108.4508988
  42.6248786  80.5104252 109.0518979  42.6110355  79.6145345 108.7151277
  43.3421214  80.5174916 109.6857265  44.4774917  80.9441592 111.0972107
  44.2192695  81.8658663 111.0956437  43.9459957  80.5472027 111.7872571
  42.0285682  79.3918632 104.3206549  42.1501593  78.4635278 104.5197437
  41.7387725  79.4057318 103.4084865  44.8976873  77.0773543 107.4573269
  44.9198569  77.1412876 106.5025249  45.3144932  76.2378051 107.6513775
  50.4096278  93.3659144 100.9759090  51.1047183  93.9865836 101.1946405
  50.7519428  92.5154495 101.2511468  52.3087701  90.8158849 102.5046421
  52.8339025  91.1546122 101.7795741  52.2210054  89.8805864 102.3209556
  36.4720701  93.0742373 106.8666302  37.2978721  92.7746145 106.4864946
  36.1214753  92.3049996 107.3156091  41.0015741  90.9772765 102.4122436
  41.1503862  91.6608229 101.7589109  41.8082185  90.9577855 102.9271892
  38.7568374  87.0037943 103.4183505  38.5114416  86.1000273 103.6163715
  38.9264289  87.0055093 102.4762983  38.0264022  82.7366300 100.9169667
  37.3333267  82.8110655 100.2609703  37.7815774  81.9726644 101.4391184
  46.6977678  74.2961901 108.3209157  46.9779432  73.6285090 108.9469584
  47.4828285  74.4890997 107.8083821  44.5011147  93.4720895  99.8834184
  43.9285114  94.0911082  99.4304656  45.0743940  94.0220257 100.4174106
  47.7208406  93.7558045 101.0142766  48.6539080  93.6903607 101.2175642
  47.6331619  94.5914312 100.5557299  50.3496423  93.0723916  97.9746714
  50.2710055  92.7383779  98.8682472  51.1706090  93.5645684  97.9738186
  44.8857945  84.8081708  97.2250236  45.8317050  84.6787916  97.2938654
  44.5072190  84.0696370  97.7019664  50.8579830  76.4737714 107.1877128
  50.6604651  76.1652802 108.0720460  51.4679535  77.1999353 107.3175058
  43.0700862  82.7331684  97.1605122  42.1632318  82.4364797  97.2367835
  43.3476843  82.4361503  96.2939408  33.9878803  84.0538048 107.6104168
  33.6681587  83.2003356 107.3178542  33.4412231  84.2686626 108.3662135
  44.6862928  77.2768574 103.3149363  43.8763656  76.9315659 103.6904609
  45.3747345  76.9676118 103.9036974  46.6153476  76.3546621 104.9373659
  47.1684515  76.7742074 105.5963683  46.8523563  75.4282369 104.9796615
  41.8399647  79.5918620  97.3017101  42.7018811  79.9173518  97.5612918
  42.0249991  78.8050116  96.7890167  49.9932283  78.4647146 104.4452324
  49.4130952  79.1231950 104.0630376  49.7268216  77.6424491 104.0339741
  48.4435850  77.8652204 106.6473644  48.9435628  77.9768738 105.8387963
  49.0871458  77.5613257 107.2874452  35.7703805  87.6059213 107.4563304
  35.7474493  87.7046900 106.5045187  36.0804442  88.4524364 107.7780471
  48.7757161  80.6247237 103.5008672  47.8883016  80.9096887 103.2828867
  49.1911151  80.4641000 102.6535949  52.1271698  80.6493758 107.2163011
  52.9032088  81.1390210 107.4887628  51.4019832  81.0751812 107.6734881
  47.9200375  90.3891911  97.5956692  48.6236225  90.5941914  98.2114348
  47.1963024  90.9568673  97.8605775  48.7498185  86.1401772 103.7158962
  48.6933387  86.5970324 102.8766595  49.3026528  85.3792457 103.5381805
  52.5602991  81.9291504 104.5409082  52.3039925  81.5288140 105.3717289
  51.9355859  82.6435298 104.4159221  49.8287072  90.8274440  99.6455152
  50.6632676  90.3955639  99.4632627  49.6671415  90.6556454 100.5732046
  49.4832964  87.3306554 101.0111491  49.4281768  87.1650825 100.0699935
  48.8579020  88.0382587 101.1673681  42.7929090  76.8314663 100.5896810
  42.7807760  77.7756503 100.7465081  43.6852512  76.6484808 100.2956271
  46.6081209  73.4257439 104.8442747  45.8413605  72.8715926 104.9899429
  47.0191914  73.4979308 105.7056898  51.1639308  97.1259215  97.3588011
  50.2868774  97.0048016  96.9950258  51.6397061  96.3345293  97.1066900
  53.9094617  98.0623602  97.1605122  53.0026072  97.7656715  97.2367835
  54.1870598  97.7653420  96.2939408  52.6793401  94.9210537  97.3017101
  53.5412565  95.2465436  97.5612918  52.8643746  94.1342033  96.7890167
  53.6322844  92.1606580 100.5896810  53.6201514  93.1048420 100.7465081
  54.5246266  91.9776726 100.2956271  13.9258275  26.8060030  86.4264574
  13.2519974  27.1091726  87.0349531  14.3124097  27.6089110  86.0770031
  17.8915016  24.3845513  87.7004397  18.5865921  25.0052206  87.9191711
  18.2338166  23.5340864  87.9756775  11.9829884  24.4907265  86.6079490
  11.4103852  25.1097452  86.1549962  12.5562678  25.0406627  87.1419412
  15.2027144  24.7744415  87.7388073  16.1357817  24.7089977  87.9420948
  15.1150357  25.6100682  87.2802605  17.8315161  24.0910285  84.6992020
  17.7528792  23.7570149  85.5927778  18.6524828  24.5832053  84.6983493
  15.4019113  21.4078281  84.3201999  16.1054963  21.6128283  84.9359654
  14.6781761  21.9755043  84.5851082  17.3105810  21.8460810  86.3700459
  18.1451414  21.4142008  86.1877933  17.1490153  21.6742824  87.2977353
  25.9390085  32.3630461  96.4655635  26.5768495  32.2437208  95.7618975
  25.8210928  33.3111305  96.5243588  18.6066607  34.1693366  92.3914051
  18.0431472  34.0783303  91.6230339  18.4919002  33.3493270  92.8716544
  24.1866166  37.8364333  87.7028516  23.5354146  38.4218414  87.3162530
  24.9810529  38.3670528  87.7623553  18.1121793  34.9253470  88.1015650
  18.8852669  34.3782458  87.9628526  18.4647192  35.7897720  88.3130112
  20.4488071  31.0846137  85.7334100  20.7013592  30.5627658  84.9717563
  19.5112630  30.9212282  85.8360784  25.4931354  30.0881915  93.5408843
  26.2794443  29.6701338  93.1899260  25.7570058  30.9928007  93.7090492
  25.6641431  35.5254765  88.2397500  25.0287264  35.5989392  88.9518405
  25.3338837  36.1148364  87.5616580  30.8939781  30.0257148  94.4441822
  31.6264953  29.4556365  94.6779651  30.1379137  29.6378749  94.8848328
  20.1684360  32.9874243  87.9358475  20.0520618  32.3119146  88.6039559
  20.2786619  32.5006616  87.1190628  22.5115901  32.4484390  91.6405164
  22.1474108  31.9215011  92.3518086  23.3683016  32.0582859  91.4671650
  22.1521388  27.4774289  86.6366513  22.3195790  28.3454526  87.0036984
  21.9618557  27.6401571  85.7127802  22.1310608  29.9331947  87.6213180
  22.0110234  30.3788998  88.4598660  21.4363197  30.2817264  87.0626718
  19.8917500  42.7035589  91.2703311  19.8141530  43.6543414  91.3491792
  19.2879144  42.3581461  91.9278237  27.8295675  30.4053420  88.4493514
  28.7413531  30.6380807  88.2741211  27.3205322  30.9890464  87.8868592
  26.4365257  35.3879238  95.8407095  25.8074119  35.5524953  95.1383163
  26.0490919  35.8020848  96.6118059  30.3154489  36.3233676  93.1951459
  29.6305527  36.7032578  92.6448492  30.3998338  36.9329003  93.9283407
  21.9893219  35.1253647  93.1057180  22.4531564  35.4041350  92.3161803
  21.7250017  34.2237091  92.9230271  20.9262105  31.2476799  89.9146745
  21.6286148  31.6997843  90.3820672  20.5942733  30.6060618  90.5426639
  28.6851248  36.8465591  97.9669160  29.5068692  36.4445778  97.6851842
  28.6813651  36.7433825  98.9185276  36.7757241  33.1904339  94.3154131
  36.0220950  32.6211737  94.1598136  36.9104783  33.1567004  95.2624766
  22.1655869  38.0617742  89.9908851  22.0301544  38.9069277  90.4193699
  22.7065682  38.2637019  89.2274785  15.6185267  35.5793180  90.5636776
  16.1309787  36.3736430  90.7142340  16.2707980  34.8819470  90.4970377
  17.4280151  38.6958936  92.6459529  17.6046780  39.6176901  92.4580513
  18.2236985  38.3817355  93.0753909  18.5511467  40.2137110  98.6469871
  19.1018892  40.0854173  97.8746865  17.7122943  40.5131999  98.2964764
  13.5834184  33.9081834  91.3396346  14.4209406  34.3178842  91.1230054
  13.7612451  32.9681276  91.3096540  25.4798616  31.5756915  87.0280179
  24.9645239  32.3461519  87.2668567  25.2075924  30.9022051  87.6513241
  23.0645727  26.4206615  92.0865418  22.2087323  26.0313466  91.9071056
  23.4772678  26.4998576  91.2265203  30.4532890  34.3289269  88.9633353
  29.6762333  33.9900429  88.5188515  31.1324371  34.3341892  88.2888318
  25.2684919  29.4484007  88.8539960  24.9635054  29.7630156  89.7050104
  26.2215361  29.5265427  88.8967293  23.7131351  35.6074230  90.5032914
  23.1852712  34.8726990  90.1906152  23.2118853  36.3848906  90.2572883
  28.6924197  33.8023250  95.6199961  28.0347871  34.4922512  95.7080089
  29.4964596  34.1919682  95.9633947  27.5029656  32.1567623  93.6703902
  28.0161537  32.7897615  94.1725612  28.1530879  31.5568819  93.3047263
  18.7719665  28.2998357  86.8835411  17.9356978  28.6373044  87.2044686
  18.6324435  28.1647337  85.9462548  21.8583951  33.4254440  83.5067887
  20.9511013  33.1943694  83.7059036  22.3554983  32.6292059  83.6941869
  24.7652030  42.1351947  86.4264574  24.0913729  42.4383644  87.0349531
  25.1517852  42.9381028  86.0770031  24.7645534  31.0308494  91.0464923
  25.5117353  31.5429892  90.7372045  25.0337124  30.7092547  91.9069317
  23.0372184  33.5267035  88.0291878  22.1283404  33.2426068  88.1264347
  23.0667268  33.9466114  87.1695184  28.2691452  37.1373625  91.7983045
  27.8153779  36.2964534  91.8548236  27.6385418  37.7735023  92.1357825
  27.2124371  28.0665611  93.0283713  26.4747128  27.5542997  93.3593955
  27.4651145  27.6265992  92.2166989  26.7124391  38.9750121  92.7332863
  27.0047365  39.5355178  92.0145229  27.2223012  39.2678682  93.4886022
  22.7348272  35.0675779  85.3679956  22.2967702  34.3511638  84.9085593
  23.4758713  35.2951894  84.8065048  19.5249438  29.7572715  91.8892052
  18.7117304  30.0566886  92.2957244  20.0208432  29.3628404  92.6066534
  21.6758016  39.7530472  93.8226316  21.6334195  39.9791319  92.8934849
  22.5920715  39.5193847  93.9712118  30.8521387  33.3432976  91.4256275
  30.7139285  33.5334572  90.4977464  30.4957606  34.1052359  91.8824326
  30.8790767  35.4109503  96.4367546  31.3127273  35.3184792  97.2850600
  31.5922347  35.3867003  95.7987562  19.7923817  36.6293501  93.6188279
  20.5864415  36.1343821  93.4170854  19.0815509  36.1011364  93.2555985
  24.6118661  39.0111597  97.9700647  24.6655684  39.5802533  98.7378363
  23.7433443  39.1813482  97.6054684  16.1006580  30.7736583  89.6948032
  15.1704169  30.7121039  89.9117994  16.1964052  30.2512536  88.8984673
  31.7406316  35.4533203  98.9700432  31.9342206  36.3579014  99.2159707
  31.6406934  34.9940623  99.8039017  22.3695093  37.2022523  97.2986116
  22.2306179  36.8341308  98.1712054  21.5809689  37.7170163  97.1270074
  22.9643245  42.3031620  88.6411653  23.1395001  41.8319663  89.4557276
  22.2776033  42.9297386  88.8692914  23.9200308  36.5804126  94.6874954
  23.5850141  36.5404896  95.5832604  23.4204254  35.9148842  94.2145364
  26.8559500  33.9260160  84.9612014  26.2388670  33.2006989  84.8645066
  26.3875988  34.6869521  84.6179088  17.5304330  45.4520983  95.4151513
  17.7700928  46.0839507  96.0930532  16.6873527  45.1009023  95.7016872
  18.6458046  28.1445585  84.0833318  17.7687512  28.0234385  83.7195565
  19.1215799  27.3531663  83.8312207  22.0432192  41.2600105  97.8193017
  21.9702364  42.0655077  98.3312322  21.6009585  41.4592071  96.9941038
  21.8321972  40.4971875  91.3295839  21.0489494  41.0393555  91.4234063
  22.5314717  41.0145855  91.7290080  32.9948379  32.0106870  95.6148335
  32.9838255  32.8931585  95.2442269  32.1265759  31.6578421  95.4202872
  24.5030876  41.1586939  99.9751176  25.2158848  41.7934404  99.9027077
  24.0120904  41.2550805  99.1591177  26.2248402  35.0638192  91.5468467
  25.2904681  35.1839654  91.3773172  26.4025071  34.1610658  91.2828477
  29.6120954  30.9055511  92.0818501  30.0781406  31.7383503  92.0078804
  30.0628454  30.4400493  92.7863760  27.6797185  37.2499332  89.0804653
  27.9557029  37.1355927  89.9898528  26.8101684  36.8516817  89.0416827
  24.3151249  41.4985683  92.7237467  24.4973643  40.6807339  93.1865219
  25.1384235  41.7153375  92.2862357  24.6493414  40.4253868  89.9852516
  25.1781181  39.9146323  89.3722678  24.9121634  40.1096398  90.8498049
  18.0049162  41.4768985  92.7450292  17.3359538  41.9615113  92.2614332
  17.8662032  41.7238205  93.6593670  22.1454431  43.5112728  99.3432950
  22.6972739  43.6744350 100.1082035  22.4860624  44.1017166  98.6712975
  13.3736739  29.7387440  89.5246224  13.6690181  28.8298118  89.4713277
  12.4724775  29.7175179  89.2027226  25.2822818  41.4594704  96.3296632
  25.1573958  40.6584444  95.8207578  25.9401909  41.9540897  95.8410602
  27.3457727  39.2603724  97.9576182  26.3988062  39.1409075  97.8854509
  27.6940500  38.3726222  98.0402444  24.3504160  39.0556440  94.1580534
  24.2029122  38.1273148  94.3388104  25.1757653  39.0776531  93.6737610
  18.2166404  27.7074507  90.0161027  18.5562477  28.2360429  89.2939635
  18.6638525  28.0454913  90.7919593  27.9538282  39.8784999  95.2445407
  28.8784829  39.6727860  95.1069858  27.7853585  39.6301400  96.1534749
  20.2034551  26.2049129  88.2154319  20.9242914  26.5830382  87.7118036
  19.5799855  26.9238006  88.3189297  24.3465674  26.9094278  89.1512652
  24.5629289  27.7918916  88.8501480  23.8659741  26.5180491  88.4218294
  27.7433598  40.3970666  90.6007499  27.9170476  39.8317089  89.8481351
  28.2362489  41.1971561  90.4186989  33.5972989  33.1607089  92.2197798
  34.0404135  32.4114415  91.8216922  32.7199499  33.1517226  91.8371530
  28.7308770  39.7137431  87.7004397  29.4259675  40.3344124  87.9191711
  29.0731921  38.8632782  87.9756775  30.6300194  37.1637136  89.2291728
  31.1551518  37.5024409  88.5041048  30.5422546  36.2284152  89.0454862
  22.3140854  43.2309120  93.5886981  21.8745845  42.7385498  94.2819838
  23.0648971  42.6882087  93.3479056  14.7933193  39.4220661  93.5911609
  15.6191213  39.1224432  93.2110252  14.4427245  38.6528283  94.0401398
  19.7614727  38.7747129  95.6609282  19.1394736  38.1117834  95.3611510
  20.4319593  38.8008261  94.9782930  19.3228233  37.3251052  89.1367743
  19.4716354  38.0086517  88.4834416  20.1294677  37.3056142  89.6517199
  33.1405854  34.6312328  94.6120246  33.9752745  35.0702132  94.7757806
  33.2764983  34.1550981  93.7928492  17.0780866  33.3516230  90.1428812
  16.8326908  32.4478560  90.3409022  17.2476781  33.3533380  89.2008290
  16.3476514  29.0844587  87.6414973  15.6545759  29.1588942  86.9855009
  16.1028266  28.3204931  88.1636490  22.8223639  39.8199183  86.6079490
  22.2497606  40.4389370  86.1549962  23.3956433  40.3698544  87.1419412
  26.0420899  40.1036333  87.7388073  26.9751572  40.0381894  87.9420948
  25.9544112  40.9392600  87.2802605  28.6708915  39.4202203  84.6992020
  28.5922547  39.0862067  85.5927778  29.4918582  39.9123971  84.6983493
  31.3687107  32.2863942  97.9068339  31.3363427  31.3479943  98.0928023
  31.9787730  32.3647979  97.1734164  23.2070437  31.1559995  83.9495543
  24.1529542  31.0266203  84.0183961  22.8284682  30.4174657  84.4264971
  37.1863656  33.3479949  97.0474376  37.9167045  33.0865237  97.6082079
  36.5770602  32.6108671  97.0876444  35.2678954  31.4887812  97.6448827
  34.5412117  31.3543777  97.0365318  34.8526240  31.7964640  98.4505545
  21.3913355  29.0809972  83.8850428  20.4844810  28.7843084  83.9613142
  21.6689336  28.7839790  83.0184714  23.0075420  23.6246861  90.0394669
  22.1976149  23.2793946  90.4149916  23.6959837  23.3154405  90.6282281
  20.1612139  25.9396907  84.0262407  21.0231303  26.2651805  84.2858225
  20.3462483  25.1528403  83.5135473  28.3144776  24.8125433  91.1697630
  27.7343445  25.4710237  90.7875683  28.0480708  23.9902778  90.7585048
  27.0969654  26.9725524  90.2253979  26.2095509  27.2575174  90.0074173
  27.5123643  26.8119287  89.3781256  30.4484190  26.9972045  93.9408318
  31.2244580  27.4868497  94.2132935  29.7232324  27.4230099  94.3980187
  32.8856748  27.7099664  94.9982258  33.4801239  27.4695400  94.2875567
  32.9583332  26.9906795  95.6255795  15.1053904  41.5533275  95.3125423
  14.9708372  40.7933676  94.7463421  14.6885966  42.2774175  94.8454212
  26.2412867  36.7370198  84.3201999  26.9448717  36.9420201  84.9359654
  25.5175516  37.3046960  84.5851082  27.0710677  32.4880060  90.4404269
  27.0145879  32.9448611  89.6011901  27.6239020  31.7270744  90.2627112
  30.8815483  28.2769792  91.2654388  30.6252418  27.8766427  92.0962596
  30.2568351  28.9913586  91.1404527  35.1927821  31.0165865  93.7725680
  34.6327379  31.0859054  94.5457242  34.5871325  30.8406849  93.0525176
  18.2623030  42.4502592  95.5243866  18.1455414  43.3948024  95.4222556
  17.4415476  42.1476153  95.9129665  28.1499565  37.1752728  86.3700459
  28.9845169  36.7433926  86.1877933  27.9883907  37.0034741  87.2977353
  27.8045457  33.6784841  87.7356798  27.7494261  33.5129112  86.7945242
  27.1791512  34.3860874  87.8918988  21.1141582  23.1792950  87.3142116
  21.1020252  24.1234790  87.4710387  22.0065004  22.9963095  87.0201578
  19.2877544  43.1030854  98.7399794  20.1904791  43.1354464  99.0566289
  19.0614914  42.1731305  98.7546130  21.0431146  41.8561840  95.4009873
  20.0926777  41.8563702  95.2874245  21.3463632  41.1094575  94.8845908
  36.7783840  47.6922379  96.4655635  37.4162250  47.5729126  95.7618975
  36.6604683  48.6403223  96.5243588  33.5873546  47.6449807  96.4017160
  33.2492057  47.5290872  95.5137695  34.4563314  47.2440972  96.3818166
  29.4460362  49.4985283  92.3914051  28.8825227  49.4075220  91.6230339
  29.3312757  48.6785188  92.8716544  34.0693329  48.7984659 102.3603366
  34.0581970  48.4037457 101.4883869  34.2313968  48.0650731 102.9537137
  26.9924794  50.9936475  95.2298272  27.7846086  50.6527300  94.8144571
  27.2321444  51.1031450  96.1500425  35.0259920  53.1656251  87.7028516
  34.3747900  53.7510331  87.3162530  35.8204283  53.6962446  87.7623553
  28.9515548  50.2545388  88.1015650  29.7246424  49.7074375  87.9628526
  29.3040946  51.1189637  88.3130112  30.7900590  51.5821770 101.3082550
  30.4990456  52.4867401 101.1929216  31.4257574  51.6238298 102.0226619
  31.7156797  48.9598619  97.8983909  32.3120369  48.7354641  97.1840872
  31.7731768  48.2183364  98.5009357  31.2881825  46.4138054  85.7334100
  31.5407346  45.8919576  84.9717563  30.3506384  46.2504200  85.8360784
  36.3325108  45.4173833  93.5408843  37.1188197  44.9993256  93.1899260
  36.5963812  46.3219925  93.7090492  36.5035186  50.8546683  88.2397500
  35.8681018  50.9281309  88.9518405  36.1732592  51.4440282  87.5616580
  41.7333535  45.3549066  94.4441822  42.4658707  44.7848283  94.6779651
  40.9772891  44.9670666  94.8848328  31.0078114  48.3166160  87.9358475
  30.8914372  47.6411064  88.6039559  31.1180374  47.8298534  87.1190628
  33.3509655  47.7776307  91.6405164  32.9867862  47.2506928  92.3518086
  34.2076771  47.3874776  91.4671650  39.2558956  39.0670640  98.9036431
  38.9242280  39.9366051  98.6797646  38.6604569  38.7506924  99.5830461
  32.9915142  42.8066207  86.6366513  33.1589544  43.6746443  87.0036984
  32.8012311  42.9693489  85.7127802  35.7490475  51.2683186  98.3032343
  35.4491198  52.1708225  98.1948151  35.4041535  51.0015369  99.1553496
  29.2002957  47.7196983  94.3369048  28.2753453  47.5873197  94.5446739
  29.4487370  48.4991202  94.8338990  39.1487619  43.7865726  95.9829781
  38.2404496  43.7181135  95.6888542  39.0975215  44.2637671  96.8111606
  32.9704363  45.2623864  87.6213180  32.8503988  45.7080915  88.4598660
  32.2756951  45.6109182  87.0626718  26.5611768  47.3630256  95.1712837
  26.6904149  47.6164735  96.0852249  25.8809219  47.9557964  94.8517492
  30.7311255  58.0327506  91.2703311  30.6535285  58.9835331  91.3491792
  30.1272899  57.6873379  91.9278237  33.2228485  45.2055372 103.9264678
  32.4461819  45.7649292 103.9167543  33.8619048  45.6912155 104.4479548
  41.0149265  41.9882164  97.7607655  40.3723646  42.2814698  97.1147449
  40.5104194  41.8735085  98.5660851  38.6689429  45.7345338  88.4493514
  39.5807285  45.9672724  88.2741211  38.1599076  46.3182382  87.8868592
  31.4774857  48.0140825 103.4882645  32.2189541  48.5525869 103.2117469
  30.7711843  48.6407114 103.6454197  36.9530197  50.1569965 102.0854806
  37.3613553  49.7152376 101.3409439  36.2307458  49.5822593 102.3388999
  33.3061267  45.0942572  99.4588363  34.1522462  45.5181986  99.6023012
  33.2459904  44.4376197 100.1526926  37.2759011  50.7171156  95.8407095
  36.6467874  50.8816870  95.1383163  36.8884673  51.1312766  96.6118059
  41.1548243  51.6525594  93.1951459  40.4699281  52.0324495  92.6448492
  41.2392093  52.2620921  93.9283407  36.4560712  42.7546941 101.1169537
  36.2121644  43.5089001 100.5803813  36.7320643  43.1332288 101.9516784
  38.4099175  49.2985553  99.7946803  38.6216070  49.9417313  99.1181184
  38.3628923  48.4647870  99.3268733  36.0125404  41.9103374  96.6983375
  35.1509883  42.2084627  96.9900112  36.0387838  42.1273773  95.7664407
  32.8286973  50.4545564  93.1057180  33.2925319  50.7333267  92.3161803
  32.5643771  49.5529009  92.9230271  29.7211054  50.0017046  96.0436944
  30.2912411  50.4304314  95.4054428  30.3119166  49.7199630  96.7421129
  31.7655859  46.5768717  89.9146745  32.4679903  47.0289760  90.3820672
  31.4336488  45.9352535  90.5426639  30.2136221  45.1680473 104.2897955
  29.5834881  45.8496754 104.5233352  30.1072309  45.0563555 103.3451093
  25.5081193  44.8352269  95.2163879  24.7180247  45.0909798  94.7403990
  25.9992441  45.6500607  95.3215920  39.5245003  52.1757508  97.9669160
  40.3462447  51.7737696  97.6851842  39.5207406  52.0725743  98.9185276
  27.4595939  45.1996848  92.1747356  26.6627102  45.3115543  92.6930851
  27.2321531  45.5383501  91.3088246  33.2901606  51.7241552 100.1229870
  33.3546039  52.1861959 100.9588042  32.5812530  51.0938917 100.2512180
  23.7918896  45.0882760  97.6478870  24.0426935  45.9729770  97.9136446
  24.3278445  44.9087361  96.8753962  47.6150996  48.5196257  94.3154131
  46.8614704  47.9503655  94.1598136  47.7498537  48.4858921  95.2624766
  33.0049624  53.3909659  89.9908851  32.8695299  54.2361195  90.4193699
  33.5459436  53.5928937  89.2274785  26.4579021  50.9085097  90.5636776
  26.9703542  51.7028347  90.7142340  27.1101734  50.2111388  90.4970377
  28.2673906  54.0250854  92.6459529  28.4440534  54.9468818  92.4580513
  29.0630740  53.7109273  93.0753909  32.4084925  40.8859118 104.2443462
  33.1494638  41.4866271 104.1647925  32.6402847  40.1436756 103.6861505
  27.5526263  46.0715485 102.5221692  27.4379778  45.1700743 102.8228791
  26.6970780  46.3179182 102.1706509  34.6318100  54.0133226 104.1209193
  34.1881954  53.2269604 103.8030097  35.2935314  54.2012376 103.4553084
  29.3905221  55.5429027  98.6469871  29.9412647  55.4146091  97.8746865
  28.5516697  55.8423916  98.2964764  36.7299338  54.2936026 102.1490594
  36.7117814  55.1144907 101.6570863  37.6519258  54.1690101 102.3740735
  33.1872392  51.8080155 102.9914102  33.7200729  51.0468443 102.7613410
  32.6586474  51.5153807 103.7338257  36.3542087  36.9140221  98.5207744
  36.0106357  37.8041863  98.4446855  36.7221050  36.7241879  97.6577329
  24.4227938  49.2373752  91.3396346  25.2603160  49.6470760  91.1230054
  24.6006206  48.2973194  91.3096540  36.3192370  46.9048832  87.0280179
  35.8038994  47.6753437  87.2668567  36.0469679  46.2313968  87.6513241
  33.9039481  41.7498533  92.0865418  33.0481078  41.3605383  91.9071056
  34.3166433  41.8290494  91.2265203  35.4338628  39.2844876  96.4856977
  34.9303423  39.2475011  95.6724783  35.7269235  40.1937619  96.5453634
  31.6781514  39.3683606  95.4923159  32.5434510  39.1726415  95.1329049
  31.7459023  39.1393958  96.4192516  41.2926644  49.6581187  88.9633353
  40.5156087  49.3192346  88.5188515  41.9718125  49.6633810  88.2888318
  36.1078673  44.7775924  88.8539960  35.8028809  45.0922073  89.7050104
  37.0609115  44.8557344  88.8967293  34.5525105  50.9366148  90.5032914
  34.0246467  50.2018907  90.1906152  34.0512608  51.7140824  90.2572883
  39.5317951  49.1315168  95.6199961  38.8741626  49.8214429  95.7080089
  40.3358350  49.5211600  95.9633947  29.2843833  41.5985814  92.8639526
  29.8587585  41.3760995  92.1312719  29.8714815  41.6674508  93.6168127
  38.3423410  47.4859541  93.6703902  38.8555292  48.1189533  94.1725612
  38.9924634  46.8860736  93.3047263  29.6113420  43.6290275  86.8835411
  28.7750732  43.9664961  87.2044686  29.4718190  43.4939255  85.9462548
  31.5866501  38.4727063  91.5914595  30.9330913  38.1576080  90.9671210
  31.5446975  37.8502803  92.3174418  32.6977705  48.7546358  83.5067887
  31.7904767  48.5235611  83.7059036  33.1948737  47.9583977  83.6941869
  35.6045784  57.4643865  86.4264574  34.9307483  57.7675562  87.0349531
  35.9911606  58.2672945  86.0770031  34.8204241  44.9608996  95.9162243
  33.9026802  45.1823943  95.7583931  35.2364385  45.0355307  95.0573950
  35.6039289  46.3600412  91.0464923  36.3511108  46.8721809  90.7372045
  35.8730878  46.0384465  91.9069317  33.8765939  48.8558953  88.0291878
  32.9677158  48.5717986  88.1264347  33.9061023  49.2758031  87.1695184
  39.1085206  52.4665542  91.7983045  38.6547533  51.6256452  91.8548236
  38.4779173  53.1026941  92.1357825  38.0518126  43.3957528  93.0283713
  37.3140883  42.8834914  93.3593955  38.3044899  42.9557910  92.2166989
  37.5518145  54.3042039  92.7332863  37.8441120  54.8647096  92.0145229
  38.0616766  54.5970600  93.4886022  38.1529753  36.1733780  93.6225482
  38.4588630  35.3131144  93.3351397  38.8782358  36.7651400  93.4224476
  24.4454109  46.5764467  92.0107080  24.2478509  45.9833828  91.2858146
  23.8900773  46.2716677  92.7283019  32.4250833  46.4687573  94.1301673
  32.4799443  45.5161410  94.0544150  31.6142035  46.6247012  94.6142971
  33.5742027  50.3967696  85.3679956  33.1361457  49.6803555  84.9085593
  34.3152467  50.6243811  84.8065048  30.3643193  45.0864633  91.8892052
  29.5511058  45.3858804  92.2957244  30.8602187  44.6920322  92.6066534
  32.5151771  55.0822390  93.8226316  32.4727949  55.3083236  92.8934849
  33.4314470  54.8485765  93.9712118  35.9617404  45.5506458 100.7206946
  36.3166792  45.7777931 101.5801411  36.6089536  45.8824834 100.0984201
  41.6915141  48.6724893  91.4256275  41.5533040  48.8626489  90.4977464
  41.3351360  49.4344276  91.8824326  29.8557268  42.6582989  97.5053287
  30.4956647  42.5171748  96.8076250  29.0234798  42.3717502  97.1291889
  41.7184521  50.7401420  96.4367546  42.1521028  50.6476710  97.2850600
  42.4316102  50.7158921  95.7987562  30.6317571  51.9585419  93.6188279
  31.4258170  51.4635739  93.4170854  29.9209264  51.4303282  93.2555985
  35.4512416  54.3403515  97.9700647  35.5049438  54.9094451  98.7378363
  34.5827197  54.5105400  97.6054684  26.9400335  46.1028501  89.6948032
  26.0097923  46.0412956  89.9117994  27.0357807  45.5804454  88.8984673
  26.8585884  42.6283314  92.2826274  27.1192701  43.5428647  92.1735434
  27.6803056  42.1607756  92.4322886  28.3310809  44.0421071  99.4525098
  29.0033863  43.8338433  98.8037747  27.5040596  43.8443157  99.0130330
  42.5800071  50.7825121  98.9700432  42.7735961  51.6870932  99.2159707
  42.4800689  50.3232540  99.8039017  34.2336381  40.6683012 101.4690759
  33.5864296  41.3672961 101.3755235  35.0037397  41.1019156 101.8367007
  37.6415179  50.9331864 104.5441312  37.4900686  50.7042416 103.6271396
  37.6319859  51.8902465 104.5572657  34.4100516  48.5063777  99.5287579
  35.3392576  48.6574936  99.3556546  33.9891546  48.5947797  98.6736225
  33.2088847  52.5314441  97.2986116  33.0699933  52.1633225  98.1712054
  32.4203444  53.0462080  97.1270074  33.8036999  57.6323537  88.6411653
  33.9788755  57.1611581  89.4557276  33.1169787  58.2589304  88.8692914
  34.7594063  51.9096044  94.6874954  34.4243895  51.8696814  95.5832604
  34.2598008  51.2440760  94.2145364  28.7338307  47.3163674 100.2127535
  28.5958104  46.5843913 100.8139074  29.6443230  47.2272574  99.9311723
  37.6953254  49.2552078  84.9612014  37.0782425  48.5298906  84.8645066
  37.2269743  50.0161438  84.6179088  31.3620607  47.0283633  99.7011215
  32.0720226  46.3876825  99.6597833  31.3189915  47.2796528 100.6237396
  39.3507386  53.9650986 102.6217794  39.2919932  53.2810207 101.9548377
  39.7526904  54.7069976 102.1698420  30.0749541  44.0148851 101.5206854
  29.5386898  43.5639589 102.1728451  29.4866250  44.1494760 100.7777319
  28.3698085  60.7812900  95.4151513  28.6094683  61.4131424  96.0930532
  27.5267281  60.4300940  95.7016872  29.4851800  43.4737502  84.0833318
  28.6081266  43.3526303  83.7195565  29.9609553  42.6823581  83.8312207
  39.3524793  51.9290570 100.8531774  38.4651572  51.5916492 100.9758173
  39.9223344  51.1973602 101.0900539  21.0053940  48.2614662  94.1774825
  21.6924980  47.9476392  93.5895840  20.8502069  49.1656027  93.9042077
  25.8088662  43.1504859  98.6059849  25.7246851  42.5430528  97.8710259
  24.9871369  43.6413877  98.6069345  32.8825947  56.5892023  97.8193017
  32.8096118  57.3946994  98.3312322  32.4403340  56.7883989  96.9941038
  32.6715726  55.8263793  91.3295839  31.8883248  56.3685473  91.4234063
  33.3708471  56.3437772  91.7290080  35.9812376  41.6358422  93.9730044
  36.4781076  40.8828385  93.6531114  35.2099358  41.6722739  93.4073253
  43.8342134  47.3398788  95.6148335  43.8232010  48.2223503  95.2442269
  42.9659513  46.9870339  95.4202872  35.3424630  56.4878857  99.9751176
  36.0552602  57.1226322  99.9027077  34.8514659  56.5842723  99.1591177
  37.0642157  50.3930109  91.5468467  36.1298436  50.5131572  91.3773172
  37.2418825  49.4902576  91.2828477  32.5647345  43.7775805  93.7001729
  32.1945133  43.2246846  94.3882634  33.0606437  43.1733939  93.1476729
  40.4514708  46.2347429  92.0818501  40.9175161  47.0675420  92.0078804
  40.9022209  45.7692410  92.7863760  30.3936544  54.2373300 100.7956746
  31.0946003  54.8709783 100.9486141  29.9231659  54.5788032 100.0352386
  38.5190939  52.5791250  89.0804653  38.7950783  52.4647845  89.9898528
  37.6495438  52.1808735  89.0416827  38.4231371  38.6028016  96.1209403
  37.5094451  38.8332243  96.2891610  38.8524473  38.6866460  96.9723435
  38.1937830  46.7917908  98.6209297  37.5409280  47.0393815  97.9661750
  38.5718209  45.9782046  98.2871774  35.1545003  56.8277601  92.7237467
  35.3367398  56.0099257  93.1865219  35.9777989  57.0445293  92.2862357
  35.4887169  55.7545786  89.9852516  36.0174935  55.2438241  89.3722678
  35.7515389  55.4388316  90.8498049  34.2425403  47.5337719 105.1075334
  33.5666040  47.4331848 105.7777709  35.0653036  47.3776932 105.5711331
  25.9904262  53.7709655  97.7287849  26.5757698  53.0253343  97.8615753
  25.7929100  54.0813612  98.6124513  28.8442917  56.8060903  92.7450292
  28.1753292  57.2907030  92.2614332  28.7055787  57.0530123  93.6593670
  20.5821916  46.3415255  96.4492292  20.6206016  45.8078846  97.2429410
  20.0762209  45.8150461  95.8303269  32.9848185  58.8404646  99.3432950
  33.5366494  59.0036268 100.1082035  33.3254379  59.4309084  98.6712975
  27.9612679  41.1879796  99.9454835  28.0254005  42.0494627  99.5332232
  27.8979799  40.5753798  99.2127193  37.8359060  53.6665904 105.1981604
  38.3798964  54.2795862 104.7036559  37.2545905  54.2245482 105.7148617
  24.2130494  45.0679358  89.5246224  24.5083935  44.1590036  89.4713277
  23.3118530  45.0467097  89.2027226  36.1216573  56.7886622  96.3296632
  35.9967712  55.9876362  95.8207578  36.7795664  57.2832815  95.8410602
  27.7424741  43.1435354  95.5073772  27.0211327  43.7571322  95.3681246
  28.5317997  43.6793119  95.4290418  38.1851481  54.5895642  97.9576182
  37.2381817  54.4700993  97.8854509  38.5334254  53.7018140  98.0402444
  30.5451055  40.4789781 101.7814424  31.0685456  40.7252077 102.5440733
  30.3263388  41.3109815 101.3617561  25.9418336  42.7493455  89.6485549
  25.6131042  41.8690834  89.4660655  26.2957706  42.6941124  90.5361938
  35.1897914  54.3848358  94.1580534  35.0422877  53.4565065  94.3388104
  36.0151408  54.4068449  93.6737610  29.0560159  43.0366425  90.0161027
  29.3956231  43.5652346  89.2939635  29.5032279  43.3746831  90.7919593
  38.7932036  55.2076917  95.2445407  39.7178584  55.0019778  95.1069858
  38.6247340  54.9593318  96.1534749  31.7503600  41.4203476  99.4664095
  31.4100420  40.6211289  99.8684774  31.0442606  41.7205187  98.8940928
  32.4020071  38.5052788  97.9191418  33.2246141  38.0313266  97.7970308
  32.6458135  39.2843272  98.4190104  31.0428306  41.5341047  88.2154319
  31.7636668  41.9122299  87.7118036  30.4193610  42.2529923  88.3189297
  35.1859429  42.2386196  89.1512652  35.4023043  43.1210833  88.8501480
  34.7053496  41.8472409  88.4218294  29.9258650  45.1971909  95.7283396
  29.7803231  45.5112212  96.6207678  29.4483854  45.8156809  95.1754295
  31.7855033  42.1874457  95.7764286  31.7716602  41.2915550  95.4396584
  32.5027461  42.1945121  96.4102572  33.6381164  42.6211797  97.8217413
  33.3798942  43.5428868  97.8201744  33.1066204  42.2242232  98.5117877
  38.5827352  55.7262584  90.6007499  38.7564230  55.1609007  89.8481351
  39.0756244  56.5263479  90.4186989  24.4004312  47.7377253  98.6671057
  23.8557780  48.5137061  98.7991332  25.2783662  48.0848058  98.5090179
  31.1891929  41.0688837  91.0451856  31.3107840  40.1405483  91.2442743
  30.8993971  41.0827523  90.1330171  34.0583119  38.7543748  94.1818576
  34.0804816  38.8183081  93.2270555  34.4751178  37.9148256  94.3759082
  44.4366744  48.4899007  92.2197798  44.8797890  47.7406332  91.8216922
  43.5593254  48.4809143  91.8371530  39.5702525  55.0429349  87.7004397
  40.2653430  55.6636041  87.9191711  39.9125675  54.1924700  87.9756775
  25.1870334  46.8647150 101.5601214  24.4452070  47.0129785 102.1465845
  24.8663078  47.1255415 100.6967964  41.4693948  52.4929054  89.2291728
  41.9945272  52.8316327  88.5041048  41.3816301  51.5576069  89.0454862
  33.1313997  56.4063128 101.3581604  33.4401123  56.1612274 102.2304304
  33.9289479  56.6109766 100.8700474  33.1534609  58.5601037  93.5886981
  32.7139599  58.0677416  94.2819838  33.9042726  58.0174005  93.3479056
  25.6326948  54.7512578  93.5911609  26.4584968  54.4516350  93.2110252
  25.2821000  53.9820201  94.0401398  30.6008481  54.1039046  95.6609282
  29.9788490  53.4409751  95.3611510  31.2713348  54.1300178  94.9782930
  23.8335553  52.6698905  94.5500542  22.9967461  52.2421079  94.3684544
  23.8059198  52.8631348  95.4871334  41.1587854  53.1261958 104.5342926
  40.3683398  53.1086097 103.9947425  40.9221209  53.6650251 105.2891962
  41.2785729  49.9754424 101.8475654  41.3283734  49.8104432 102.7891177
  41.1699653  49.1081683 101.4573535  30.1621988  52.6542970  89.1367743
  30.3110108  53.3378434  88.4834416  30.9688431  52.6348060  89.6517199
  38.5689492  45.9585352 103.1634961  39.4699354  45.8191817 102.8718959
  38.6437466  46.1239807 104.1033138  32.9032297  43.3352207 102.0088147
  32.0335606  43.6285773 101.7370736  33.1391777  43.9192652 102.7295411
  42.7803926  52.3951366 102.0917676  42.4888734  52.7581346 102.9281137
  42.1676057  51.6818374 101.9131008  43.9799608  49.9604245  94.6120246
  44.8146500  50.3994049  94.7757806  44.1158737  49.4842899  93.7928492
  41.0291114  47.5183980 100.5597734  41.5045236  47.7111627  99.7516585
  40.1056680  47.5743166 100.3141117  27.9174621  48.6808147  90.1428812
  27.6720663  47.7770477  90.3409022  28.0870535  48.6825298  89.2008290
  35.6071331  39.5531824  99.5253568  36.1253275  40.2892851  99.2000056
  35.2526464  39.8595817 100.3600327  27.1870268  44.4136505  87.6414973
  26.4939513  44.4880860  86.9855009  26.9422020  43.6496849  88.1636490
  35.8583925  35.9732106  95.0454464  36.1385679  35.3055295  95.6714891
  36.6434532  36.1661202  94.5329128  33.6617393  55.1491100  86.6079490
  33.0891361  55.7681287  86.1549962  34.2350187  55.6990462  87.1419412
  39.7292783  44.3949740  98.7926039  40.6810206  44.4947838  98.8138263
  39.5596234  43.6028009  99.3024124  37.7507163  41.4805324  98.9785440
  37.1557095  41.7610336  98.2831929  37.4656859  41.9699224  99.7502181
  36.8814653  55.4328250  87.7388073  37.8145326  55.3673812  87.9420948
  36.7937866  56.2684517  87.2802605  39.5102670  54.7494121  84.6992020
  39.4316301  54.4153984  85.5927778  40.3312337  55.2415889  84.6983493
  42.2080861  47.6155860  97.9068339  42.1757181  46.6771861  98.0928023
  42.8181485  47.6939897  97.1734164  34.0464192  46.4851913  83.9495543
  34.9923297  46.3558121  84.0183961  33.6678437  45.7466575  84.4264971
  42.3575350  44.4066903  97.9526622  41.8414398  43.6225360  97.7656551
  43.2415298  44.0785620  98.1173142  40.0186076  38.1507919  93.9122435
  39.8210898  37.8423007  94.7965767  40.6285782  38.8769558  94.0420365
  48.0257411  48.6771867  97.0474376  48.7560799  48.4157155  97.6082079
  47.4164356  47.9400589  97.0876444  46.1072708  46.8179729  97.6448827
  45.3805872  46.6835694  97.0365318  45.6919995  47.1256558  98.4505545
  33.9302884  50.5369659 105.4096200  34.8505894  50.7148258 105.6036246
  33.8952467  49.5925704 105.2575899  32.2307109  44.4101889  83.8850428
  31.3238564  44.1135002  83.9613142  32.5083090  44.1131707  83.0184714
  23.1485049  45.7308253  94.3349475  22.8287834  44.8773561  94.0423849
  22.6018478  45.9456831  95.0907442  26.9264957  48.4470694  98.0518981
  27.1450967  49.3787802  98.0707015  27.3390731  48.0878668  98.8373785
  33.8469175  38.9538779  90.0394669  33.0369903  38.6085864  90.4149916
  34.5353592  38.6446323  90.6282281  35.7759723  38.0316826  91.6618966
  36.3290762  38.4512279  92.3208989  36.0129809  37.1052574  91.7041922
  31.0005894  41.2688825  84.0262407  31.8625058  41.5943723  84.2858225
  31.1856238  40.4820320  83.5135473  23.0173309  49.3511164  96.3042596
  22.3236781  48.9365117  95.7912551  23.7646300  49.3931701  95.7076015
  39.1538530  40.1417351  91.1697630  38.5737199  40.8002155  90.7875683
  38.8874463  39.3194696  90.7585048  37.6042097  39.5422409  93.3718951
  38.1041875  39.6538943  92.5633270  38.2477704  39.2383462  94.0119759
  31.6624092  47.4501038 106.2586792  31.1791174  48.2501398 106.4650681
  31.7485031  47.4608983 105.3054236  24.9310052  49.2829418  94.1808611
  24.9080740  49.3817105  93.2290494  25.2410688  50.1294569  94.5025777
  27.5897430  51.3405573  98.2955225  28.5440683  51.3089515  98.2285157
  27.3909953  50.8796197  99.1105451  28.1796812  49.9106689 100.8626023
  28.9989701  50.4050768 100.8860860  28.4533620  48.9938657 100.8343591
  37.9363408  42.3017441  90.2253979  37.0489263  42.5867092  90.0074173
  38.3517397  42.1411205  89.3781256  41.2877944  42.3263962  93.9408318
  42.0638334  42.8160415  94.2132935  40.5626079  42.7522017  94.3980187
  43.7250503  43.0391582  94.9982258  44.3194994  42.7987318  94.2875567
  43.7977087  42.3198712  95.6255795  25.9447659  56.8825193  95.3125423
  25.8102127  56.1225593  94.7463421  25.5279721  57.6066092  94.8454212
  37.0806622  52.0662116  84.3201999  37.7842472  52.2712119  84.9359654
  36.3569270  52.6338878  84.5851082  37.9104432  47.8171977  90.4404269
  37.8539633  48.2740529  89.6011901  38.4632774  47.0562662  90.2627112
  41.7209238  43.6061709  91.2654388  41.4646172  43.2058345  92.0962596
  41.0962106  44.3205503  91.1404527  46.0321576  46.3457782  93.7725680
  45.4721134  46.4150972  94.5457242  45.4265079  46.1698767  93.0525176
  29.1016785  57.7794510  95.5243866  28.9849169  58.7239942  95.4222556
  28.2809231  57.4768071  95.9129665  38.9893319  52.5044645  86.3700459
  39.8238923  52.0725844  86.1877933  38.8277662  52.3326659  87.2977353
  38.6439211  49.0076759  87.7356798  38.5888015  48.8421030  86.7945242
  38.0185267  49.7152792  87.8918988  23.4331726  44.2444823 101.5618220
  24.0790590  43.7343777 102.0505445  23.2248877  44.9813505 102.1361645
  35.9585118  51.3125670 107.0610361  36.8276278  51.4866323 106.6996996
  35.4791870  52.1320087 106.9386090  31.9535337  38.5084868  87.3142116
  31.9414007  39.4526708  87.4710387  32.8458759  38.3255013  87.0201578
  30.1271299  58.4322771  98.7399794  31.0298545  58.4646382  99.0566289
  29.9008669  57.5023222  98.7546130  31.8824901  57.1853758  95.4009873
  30.9320532  57.1855620  95.2874245  32.1857387  56.4386493  94.8845908
  35.7687456  35.1027644  91.5688053  35.0019852  34.5486131  91.7144736
  36.1798161  35.1749513  92.4302205  47.6177594  63.0214296  96.4655635
  48.2556004  62.9021044  95.7618975  47.4998437  63.9695140  96.5243588
  44.4267300  62.9741725  96.4017160  44.0885812  62.8582789  95.5137695
  45.2957069  62.5732890  96.3818166  40.2854116  64.8277201  92.3914051
  39.7218981  64.7367138  91.6230339  40.1706511  64.0077105  92.8716544
  44.9087083  64.1276576 102.3603366  44.8975724  63.7329375 101.4883869
  45.0707723  63.3942649 102.9537137  37.8318548  66.3228393  95.2298272
  38.6239840  65.9819217  94.8144571  38.0715198  66.4323368  96.1500425
  45.8653675  68.4948169  87.7028516  45.2141655  69.0802249  87.3162530
  46.6598038  69.0254364  87.7623553  39.7909302  65.5837306  88.1015650
  40.5640178  65.0366293  87.9628526  40.1434701  66.4481555  88.3130112
  41.6294345  66.9113688 101.3082550  41.3384211  67.8159319 101.1929216
  42.2651329  66.9530216 102.0226619  42.5550551  64.2890537  97.8983909
  43.1514124  64.0646559  97.1840872  42.6125523  63.5475282  98.5009357
  42.1275580  61.7429972  85.7334100  42.3801101  61.2211493  84.9717563
  41.1900139  61.5796117  85.8360784  47.1718863  60.7465750  93.5408843
  47.9581952  60.3285173  93.1899260  47.4357567  61.6511842  93.7090492
  47.3428940  66.1838601  88.2397500  46.7074773  66.2573227  88.9518405
  47.0126346  66.7732199  87.5616580  52.5727290  60.6840983  94.4441822
  53.3052462  60.1140200  94.6779651  51.8166645  60.2962584  94.8848328
  41.8471869  63.6458078  87.9358475  41.7308127  62.9702981  88.6039559
  41.9574128  63.1590452  87.1190628  44.1903410  63.1068225  91.6405164
  43.8261617  62.5798846  92.3518086  45.0470525  62.7166694  91.4671650
  50.0952710  54.3962558  98.9036431  49.7636035  55.2657969  98.6797646
  49.4998324  54.0798842  99.5830461  43.8308896  58.1358125  86.6366513
  43.9983299  59.0038361  87.0036984  43.6406066  58.2985406  85.7127802
  46.5884230  66.5975104  98.3032343  46.2884953  67.5000142  98.1948151
  46.2435289  66.3307287  99.1553496  40.0396711  63.0488900  94.3369048
  39.1147208  62.9165115  94.5446739  40.2881124  63.8283120  94.8338990
  49.9881373  59.1157644  95.9829781  49.0798251  59.0473052  95.6888542
  49.9368969  59.5929589  96.8111606  43.8098117  60.5915782  87.6213180
  43.6897743  61.0372833  88.4598660  43.1150706  60.9401100  87.0626718
  37.4005522  62.6922174  95.1712837  37.5297903  62.9456653  96.0852249
  36.7202973  63.2849882  94.8517492  41.5705009  73.3619424  91.2703311
  41.4929039  74.3127249  91.3491792  40.9666653  73.0165296  91.9278237
  44.0622239  60.5347289 103.9264678  43.2855573  61.0941209 103.9167543
  44.7012802  61.0204072 104.4479548  51.8543020  57.3174082  97.7607655
  51.2117400  57.6106615  97.1147449  51.3497948  57.2027002  98.5660851
  49.5083184  61.0637255  88.4493514  50.4201040  61.2964642  88.2741211
  48.9992831  61.6474300  87.8868592  42.3168612  63.3432743 103.4882645
  43.0583296  63.8817787 103.2117469  41.6105597  63.9699031 103.6454197
  47.7923951  65.4861883 102.0854806  48.2007307  65.0444294 101.3409439
  47.0701213  64.9114511 102.3388999  44.1455021  60.4234490  99.4588363
  44.9916216  60.8473903  99.6023012  44.0853659  59.7668114 100.1526926
  48.1152766  66.0463074  95.8407095  47.4861628  66.2108788  95.1383163
  47.7278428  66.4604683  96.6118059  51.9941998  66.9817512  93.1951459
  51.3093036  67.3616413  92.6448492  52.0785847  67.5912838  93.9283407
  47.2954467  58.0838858 101.1169537  47.0515398  58.8380919 100.5803813
  47.5714397  58.4624206 101.9516784  49.2492929  64.6277471  99.7946803
  49.4609825  65.2709231  99.1181184  49.2022678  63.7939787  99.3268733
  46.8519158  57.2395291  96.6983375  45.9903637  57.5376545  96.9900112
  46.8781593  57.4565690  95.7664407  43.6680728  65.7837482  93.1057180
  44.1319073  66.0625185  92.3161803  43.4037526  64.8820926  92.9230271
  40.5604809  65.3308963  96.0436944  41.1306166  65.7596232  95.4054428
  41.1512921  65.0491548  96.7421129  42.6049614  61.9060634  89.9146745
  43.3073657  62.3581678  90.3820672  42.2730242  61.2644453  90.5426639
  41.0529975  60.4972391 104.2897955  40.4228636  61.1788672 104.5233352
  40.9466063  60.3855472 103.3451093  36.3474948  60.1644187  95.2163879
  35.5574002  60.4201715  94.7403990  36.8386195  60.9792525  95.3215920
  50.3638757  67.5049426  97.9669160  51.1856201  67.1029613  97.6851842
  50.3601160  67.4017660  98.9185276  38.2989693  60.5288766  92.1747356
  37.5020856  60.6407460  92.6930851  38.0715285  60.8675418  91.3088246
  44.1295361  67.0533469 100.1229870  44.1939793  67.5153877 100.9588042
  43.4206285  66.4230834 100.2512180  34.6312651  60.4174677  97.6478870
  34.8820689  61.3021687  97.9136446  35.1672199  60.2379279  96.8753962
  58.4544750  63.8488175  94.3154131  57.7008459  63.2795573  94.1598136
  58.5892292  63.8150839  95.2624766  43.8443378  68.7201577  89.9908851
  43.7089053  69.5653113  90.4193699  44.3853191  68.9220855  89.2274785
  40.3310718  54.7993157 106.6523206  39.9377664  54.2459355 107.3270850
  41.1476858  55.1103735 107.0429723  37.2972776  66.2377015  90.5636776
  37.8097296  67.0320265  90.7142340  37.9495489  65.5403305  90.4970377
  39.1067660  69.3542771  92.6459529  39.2834289  70.2760736  92.4580513
  39.9024494  69.0401190  93.0753909  43.2478679  56.2151036 104.2443462
  43.9888392  56.8158189 104.1647925  43.4796602  55.4728674 103.6861505
  38.3920017  61.4007403 102.5221692  38.2773532  60.4992660 102.8228791
  37.5364535  61.6471100 102.1706509  45.4711855  69.3425143 104.1209193
  45.0275709  68.5561522 103.8030097  46.1329068  69.5304294 103.4553084
  40.2298976  70.8720945  98.6469871  40.7806401  70.7438008  97.8746865
  39.3910452  71.1715834  98.2964764  47.5693093  69.6227943 102.1490594
  47.5511568  70.4436824 101.6570863  48.4913013  69.4982019 102.3740735
  44.0266147  67.1372073 102.9914102  44.5594484  66.3760361 102.7613410
  43.4980228  66.8445725 103.7338257  47.1935842  52.2432139  98.5207744
  46.8500111  53.1333780  98.4446855  47.5614805  52.0533796  97.6577329
  35.2621693  64.5665669  91.3396346  36.0996915  64.9762678  91.1230054
  35.4399960  63.6265111  91.3096540  47.1586125  62.2340750  87.0280179
  46.6432748  63.0045355  87.2668567  46.8863433  61.5605886  87.6513241
  44.7433236  57.0790451  92.0865418  43.8874832  56.6897301  91.9071056
  45.1560187  57.1582411  91.2265203  46.2732382  54.6136794  96.4856977
  45.7697178  54.5766929  95.6724783  46.5662989  55.5229537  96.5453634
  42.5175268  54.6975524  95.4923159  43.3828265  54.5018332  95.1329049
  42.5852777  54.4685875  96.4192516  52.1320399  64.9873105  88.9633353
  51.3549842  64.6484264  88.5188515  52.8111880  64.9925728  88.2888318
  46.9472428  60.1067842  88.8539960  46.6422563  60.4213991  89.7050104
  47.9002870  60.1849262  88.8967293  45.3918860  66.2658065  90.5032914
  44.8640221  65.5310825  90.1906152  44.8906362  67.0432742  90.2572883
  50.3711706  64.4607086  95.6199961  49.7135380  65.1506347  95.7080089
  51.1752105  64.8503518  95.9633947  40.1237587  56.9277732  92.8639526
  40.6981339  56.7052913  92.1312719  40.7108570  56.9966426  93.6168127
  49.1817165  62.8151458  93.6703902  49.6949046  63.4481450  94.1725612
  49.8318388  62.2152654  93.3047263  40.4507174  58.9582193  86.8835411
  39.6144487  59.2956879  87.2044686  40.3111944  58.8231172  85.9462548
  42.4260255  53.8018980  91.5914595  41.7724667  53.4867998  90.9671210
  42.3840729  53.1794721  92.3174418  43.5371460  64.0838276  83.5067887
  42.6298522  63.8527529  83.7059036  44.0342492  63.2875895  83.6941869
  46.4439539  72.7935783  86.4264574  45.7701238  73.0967479  87.0349531
  46.8305361  73.5964863  86.0770031  45.6597995  60.2900914  95.9162243
  44.7420557  60.5115861  95.7583931  46.0758139  60.3647224  95.0573950
  46.4433043  61.6892330  91.0464923  47.1904862  62.2013727  90.7372045
  46.7124633  61.3676382  91.9069317  44.7159693  64.1850870  88.0291878
  43.8070913  63.9009903  88.1264347  44.7454777  64.6049949  87.1695184
  49.9478961  67.7957460  91.7983045  49.4941288  66.9548370  91.8548236
  49.3172927  68.4318858  92.1357825  48.8911880  58.7249446  93.0283713
  48.1534637  58.2126832  93.3593955  49.1438654  58.2849828  92.2166989
  48.3911900  69.6333957  92.7332863  48.6834874  70.1939014  92.0145229
  48.9010521  69.9262518  93.4886022  48.9923508  51.5025698  93.6225482
  49.2982384  50.6423061  93.3351397  49.7176112  52.0943318  93.4224476
  35.2847864  61.9056385  92.0107080  35.0872264  61.3125745  91.2858146
  34.7294528  61.6008595  92.7283019  43.2644587  61.7979491  94.1301673
  43.3193197  60.8453327  94.0544150  42.4535789  61.9538930  94.6142971
  44.4135781  65.7259614  85.3679956  43.9755211  65.0095473  84.9085593
  45.1546222  65.9535729  84.8065048  41.2036947  60.4156551  91.8892052
  40.3904813  60.7150721  92.2957244  41.6995941  60.0212240  92.6066534
  43.3545525  70.4114308  93.8226316  43.3121704  70.6375154  92.8934849
  44.2708224  70.1777682  93.9712118  46.8011159  60.8798375 100.7206946
  47.1560547  61.1069848 101.5801411  47.4483290  61.2116752 100.0984201
  52.5308896  64.0016811  91.4256275  52.3926794  64.1918407  90.4977464
  52.1745115  64.7636194  91.8824326  40.6951022  57.9874906  97.5053287
  41.3350401  57.8463665  96.8076250  39.8628553  57.7009420  97.1291889
  52.5578275  66.0693338  96.4367546  52.9914782  65.9768627  97.2850600
  53.2709856  66.0450839  95.7987562  41.4711326  67.2877337  93.6188279
  42.2651924  66.7927657  93.4170854  40.7603018  66.7595200  93.2555985
  46.2906170  69.6695432  97.9700647  46.3443193  70.2386369  98.7378363
  45.4220952  69.8397317  97.6054684  37.7794089  61.4320418  89.6948032
  36.8491677  61.3704874  89.9117994  37.8751561  60.9096371  88.8984673
  37.6979638  57.9575231  92.2826274  37.9586456  58.8720565  92.1735434
  38.5196811  57.4899674  92.4322886  39.1704564  59.3712988  99.4525098
  39.8427617  59.1630351  98.8037747  38.3434350  59.1735074  99.0130330
  53.4193825  66.1117039  98.9700432  53.6129715  67.0162849  99.2159707
  53.3194443  65.6524458  99.8039017  45.0730136  55.9974929 101.4690759
  44.4258051  56.6964879 101.3755235  45.8431151  56.4311073 101.8367007
  48.4808934  66.2623782 104.5441312  48.3294440  66.0334333 103.6271396
  48.4713613  67.2194383 104.5572657  45.2494270  63.8355694  99.5287579
  46.1786330  63.9866854  99.3556546  44.8285300  63.9239715  98.6736225
  44.0482602  67.8606359  97.2986116  43.9093688  67.4925143  98.1712054
  43.2597198  68.3753998  97.1270074  44.6430754  72.9615455  88.6411653
  44.8182510  72.4903498  89.4557276  43.9563542  73.5881221  88.8692914
  45.5987817  67.2387961  94.6874954  45.2637650  67.1988731  95.5832604
  45.0991763  66.5732677  94.2145364  39.5732061  62.6455591 100.2127535
  39.4351859  61.9135830 100.8139074  40.4836984  62.5564492  99.9311723
  48.5347009  64.5843996  84.9612014  47.9176179  63.8590824  84.8645066
  48.0663497  65.3453356  84.6179088  42.2014362  62.3575551  99.7011215
  42.9113980  61.7168743  99.6597833  42.1583670  62.6088446 100.6237396
  50.1901140  69.2942904 102.6217794  50.1313687  68.6102124 101.9548377
  50.5920659  70.0361894 102.1698420  40.9143296  59.3440769 101.5206854
  40.3780653  58.8931507 102.1728451  40.3260004  59.4786677 100.7777319
  39.2091839  76.1104818  95.4151513  39.4488437  76.7423342  96.0930532
  38.3661036  75.7592858  95.7016872  40.3245555  58.8029420  84.0833318
  39.4475021  58.6818221  83.7195565  40.8003308  58.0115498  83.8312207
  50.1918548  67.2582488 100.8531774  49.3045326  66.9208410 100.9758173
  50.7617099  66.5265519 101.0900539  31.8447695  63.5906580  94.1774825
  32.5318735  63.2768310  93.5895840  31.6895823  64.4947944  93.9042077
  36.6482417  58.4796776  98.6059849  36.5640606  57.8722446  97.8710259
  35.8265123  58.9705795  98.6069345  43.7219701  71.9183940  97.8193017
  43.6489873  72.7238912  98.3312322  43.2797094  72.1175906  96.9941038
  43.5109481  71.1555710  91.3295839  42.7277003  71.6977391  91.4234063
  44.2102226  71.6729690  91.7290080  46.8206131  56.9650340  93.9730044
  47.3174830  56.2120302  93.6531114  46.0493112  57.0014657  93.4073253
  54.6735888  62.6690705  95.6148335  54.6625764  63.5515421  95.2442269
  53.8053268  62.3162256  95.4202872  46.1818385  71.8170774  99.9751176
  46.8946357  72.4518239  99.9027077  45.6908413  71.9134640  99.1591177
  47.9035911  65.7222027  91.5468467  46.9692190  65.8423490  91.3773172
  48.0812580  64.8194494  91.2828477  43.4041100  59.1067723  93.7001729
  43.0338887  58.5538763  94.3882634  43.9000192  58.5025856  93.1476729
  51.2908463  61.5639346  92.0818501  51.7568915  62.3967338  92.0078804
  51.7415963  61.0984328  92.7863760  41.2330298  69.5665218 100.7956746
  41.9339758  70.2001701 100.9486141  40.7625413  69.9079949 100.0352386
  49.3584694  67.9083168  89.0804653  49.6344538  67.7939762  89.9898528
  48.4889193  67.5100652  89.0416827  49.2625126  53.9319933  96.1209403
  48.3488205  54.1624160  96.2891610  49.6918227  54.0158377  96.9723435
  49.0331584  62.1209825  98.6209297  48.3803034  62.3685733  97.9661750
  49.4111964  61.3073963  98.2871774  45.9938758  72.1569518  92.7237467
  46.1761152  71.3391174  93.1865219  46.8171744  72.3737211  92.2862357
  46.3280923  71.0837704  89.9852516  46.8568690  70.5730158  89.3722678
  46.5909143  70.7680234  90.8498049  45.0819157  62.8629636 105.1075334
  44.4059794  62.7623766 105.7777709  45.9046791  62.7068850 105.5711331
  36.8298016  69.1001573  97.7287849  37.4151453  68.3545261  97.8615753
  36.6322855  69.4105530  98.6124513  39.6836671  72.1352820  92.7450292
  39.0147047  72.6198948  92.2614332  39.5449541  72.3822041  93.6593670
  31.4215671  61.6707173  96.4492292  31.4599770  61.1370764  97.2429410
  30.9155964  61.1442379  95.8303269  43.8241940  74.1696564  99.3432950
  44.3760248  74.3328185 100.1082035  44.1648133  74.7601002  98.6712975
  38.8006433  56.5171714  99.9454835  38.8647760  57.3786545  99.5332232
  38.7373553  55.9045715  99.2127193  38.2758706  58.5894846 103.5927869
  38.9030745  58.2071923 104.2065393  37.4186625  58.3709048 103.9583561
  48.6752814  68.9957821 105.1981604  49.2192718  69.6087780 104.7036559
  48.0939659  69.5537400 105.7148617  35.0524248  60.3971275  89.5246224
  35.3477690  59.4881954  89.4713277  34.1512284  60.3759015  89.2027226
  46.9610327  72.1178539  96.3296632  46.8361467  71.3168279  95.8207578
  47.6189418  72.6124733  95.8410602  38.5818495  58.4727272  95.5073772
  37.8605081  59.0863240  95.3681246  39.3711751  59.0085037  95.4290418
  49.0245236  69.9187559  97.9576182  48.0775571  69.7992911  97.8854509
  49.3728009  69.0310057  98.0402444  41.3844809  55.8081698 101.7814424
  41.9079211  56.0543995 102.5440733  41.1657142  56.6401733 101.3617561
  36.7812090  58.0785373  89.6485549  36.4524796  57.1982752  89.4660655
  37.1351461  58.0233042  90.5361938  46.0291669  69.7140276  94.1580534
  45.8816631  68.7856983  94.3388104  46.8545162  69.7360366  93.6737610
  39.8953913  58.3658343  90.0161027  40.2349986  58.8944264  89.2939635
  40.3426034  58.7038749  90.7919593  49.6325791  70.5368834  95.2445407
  50.5572338  70.3311696  95.1069858  49.4641094  70.2885236  96.1534749
  42.5897354  56.7495393  99.4664095  42.2494174  55.9503207  99.8684774
  41.8836360  57.0497104  98.8940928  43.2413826  53.8344706  97.9191418
  44.0639895  53.3605184  97.7970308  43.4851889  54.6135190  98.4190104
  41.8822060  56.8632964  88.2154319  42.6030423  57.2414217  87.7118036
  41.2587364  57.5821841  88.3189297  46.0253183  57.5678113  89.1512652
  46.2416798  58.4502751  88.8501480  45.5447250  57.1764327  88.4218294
  40.7652405  60.5263827  95.7283396  40.6196985  60.8404130  96.6207678
  40.2877608  61.1448727  95.1754295  42.6248788  57.5166375  95.7764286
  42.6110356  56.6207468  95.4396584  43.3421216  57.5237038  96.4102572
  44.4774918  57.9503715  97.8217413  44.2192696  58.8720785  97.8201744
  43.9459959  57.5534149  98.5117877  49.4221107  71.0554502  90.6007499
  49.5957985  70.4900924  89.8481351  49.9149998  71.8555397  90.4186989
  35.2398067  63.0669171  98.6671057  34.6951535  63.8428979  98.7991332
  36.1177417  63.4139975  98.5090179  42.0285683  56.3980755  91.0451856
  42.1501595  55.4697401  91.2442743  41.7387726  56.4119441  90.1330171
  44.8976874  54.0835665  94.1818576  44.9198571  54.1474998  93.2270555
  45.3144933  53.2440174  94.3759082  55.2760498  63.8190925  92.2197798
  55.7191644  63.0698250  91.8216922  54.3987008  63.8101061  91.8371530
  50.4096279  70.3721266  87.7004397  51.1047184  70.9927959  87.9191711
  50.7519430  69.5216617  87.9756775  36.0264089  62.1939067 101.5601214
  35.2845825  62.3421703 102.1465845  35.7056833  62.4547333 100.6967964
  52.3087703  67.8220972  89.2291728  52.8339027  68.1608245  88.5041048
  52.2210055  66.8867987  89.0454862  43.9707751  71.7355045 101.3581604
  44.2794878  71.4904192 102.2304304  44.7683233  71.9401684 100.8700474
  43.9928363  73.8892955  93.5886981  43.5533354  73.3969334  94.2819838
  44.7436480  73.3465923  93.3479056  36.4720702  70.0804496  93.5911609
  37.2978722  69.7808268  93.2110252  36.1214754  69.3112118  94.0401398
  41.4402235  69.4330964  95.6609282  40.8182245  68.7701669  95.3611510
  42.1107102  69.4592096  94.9782930  34.6729307  67.9990822  94.5500542
  33.8361216  67.5712997  94.3684544  34.6452953  68.1923266  95.4871334
  41.5126763  57.9112752 105.2541789  41.5614918  58.7874875 104.8719558
  42.0549277  57.3690145 104.6813432  51.9981609  68.4553875 104.5342926
  51.2077152  68.4378014 103.9947425  51.7614963  68.9942169 105.2891962
  52.1179484  65.3046342 101.8475654  52.1677489  65.1396349 102.7891177
  52.0093407  64.4373601 101.4573535  41.0015742  67.9834887  89.1367743
  41.1503863  68.6670352  88.4834416  41.8082186  67.9639978  89.6517199
  49.4083246  61.2877270 103.1634961  50.3093109  61.1483735 102.8718959
  49.4831221  61.4531725 104.1033138  43.7426051  58.6644125 102.0088147
  42.8729361  58.9577691 101.7370736  43.9785532  59.2484570 102.7295411
  53.6197681  67.7243283 102.0917676  53.3282489  68.0873264 102.9281137
  53.0069812  67.0110292 101.9131008  54.8193363  65.2896163  94.6120246
  55.6540254  65.7285967  94.7757806  54.9552492  64.8134816  93.7928492
  51.8684869  62.8475898 100.5597734  52.3438990  63.0403544  99.7516585
  50.9450434  62.9035084 100.3141117  38.7568375  64.0100065  90.1428812
  38.5114417  63.1062395  90.3409022  38.9264290  64.0117216  89.2008290
  46.4465085  54.8823741  99.5253568  46.9647029  55.6184768  99.2000056
  46.0920218  55.1887735 100.3600327  38.0264023  59.7428423  87.6414973
  37.3333268  59.8172778  86.9855009  37.7815775  58.9788766  88.1636490
  46.6977679  51.3024024  95.0454464  46.9779433  50.6347213  95.6714891
  47.4828286  51.4953120  94.5329128  44.5011148  70.4783018  86.6079490
  43.9285115  71.0973205  86.1549962  45.0743942  71.0282380  87.1419412
  50.5686538  59.7241658  98.7926039  51.5203961  59.8239756  98.8138263
  50.3989988  58.9319927  99.3024124  48.5900917  56.8097241  98.9785440
  47.9950849  57.0902254  98.2831929  48.3050614  57.2991142  99.7502181
  47.7208408  70.7620168  87.7388073  48.6539081  70.6965730  87.9420948
  47.6331621  71.5976435  87.2802605  50.3496424  70.0786038  84.6992020
  50.2710056  69.7445902  85.5927778  51.1706091  70.5707806  84.6983493
  53.0474616  62.9447778  97.9068339  53.0150936  62.0063778  98.0928023
  53.6575239  63.0231814  97.1734164  44.8857946  61.8143831  83.9495543
  45.8317051  61.6850039  84.0183961  44.5072191  61.0758493  84.4264971
  53.1969104  59.7358821  97.9526622  52.6808153  58.9517278  97.7656551
  54.0809053  59.4077538  98.1173142  50.8579831  53.4799837  93.9122435
  50.6604652  53.1714925  94.7965767  51.4679537  54.2061476  94.0420365
  58.8651165  64.0063785  97.0474376  59.5954554  63.7449073  97.6082079
  58.2558111  63.2692506  97.0876444  56.9466463  62.1471647  97.6448827
  56.2199626  62.0127612  97.0365318  56.5313749  62.4548476  98.4505545
  44.7696639  65.8661577 105.4096200  45.6899648  66.0440176 105.6036246
  44.7346222  64.9217622 105.2575899  43.0700864  59.7393807  83.8850428
  42.1632319  59.4426920  83.9613142  43.3476845  59.4423625  83.0184714
  33.9878804  61.0600170  94.3349475  33.6681588  60.2065479  94.0423849
  33.4412232  61.2748749  95.0907442  37.7658712  63.7762611  98.0518981
  37.9844721  64.7079719  98.0707015  38.1784485  63.4170586  98.8373785
  44.6862929  54.2830697  90.0394669  43.8763658  53.9377782  90.4149916
  45.3747346  53.9738241  90.6282281  46.6153478  53.3608744  91.6618966
  47.1684516  53.7804197  92.3208989  46.8523564  52.4344492  91.7041922
  42.6386577  59.3495817 107.4421730  42.5383304  60.2990174 107.3733821
  42.4208119  59.0214056 106.5697800  41.8399648  56.5980742  84.0262407
  42.7018812  56.9235641  84.2858225  42.0249992  55.8112238  83.5135473
  33.8567064  64.6803082  96.3042596  33.1630535  64.2657035  95.7912551
  34.6040055  64.7223618  95.7076015  49.9932285  55.4709269  91.1697630
  49.4130954  56.1294073  90.7875683  49.7268217  54.6486613  90.7585048
  48.4435851  54.8714326  93.3718951  48.9435629  54.9830861  92.5633270
  49.0871459  54.5675379  94.0119759  42.5017847  62.7792956 106.2586792
  42.0184929  63.5793316 106.4650681  42.5878786  62.7900901 105.3054236
  35.7703806  64.6121336  94.1808611  35.7474495  64.7109023  93.2290494
  36.0804443  65.4586487  94.5025777  38.4291184  66.6697491  98.2955225
  39.3834438  66.6381433  98.2285157  38.2303708  66.2088115  99.1105451
  39.0190566  65.2398607 100.8626023  39.8383455  65.7342685 100.8860860
  39.2927374  64.3230575 100.8343591  48.7757163  57.6309359  90.2253979
  47.8883018  57.9159010  90.0074173  49.1911152  57.4703122  89.3781256
  52.1271699  57.6555880  93.9408318  52.9032089  58.1452333  94.2132935
  51.4019833  58.0813934  94.3980187  54.5644257  58.3683499  94.9982258
  55.1588748  58.1279235  94.2875567  54.6370841  57.6490630  95.6255795
  36.7841413  72.2117110  95.3125423  36.6495881  71.4517511  94.7463421
  36.3673475  72.9358010  94.8454212  47.9200376  67.3954034  84.3201999
  48.6236226  67.6004036  84.9359654  47.1963025  67.9630796  84.5851082
  48.7498186  63.1463895  90.4404269  48.6933388  63.6032446  89.6011901
  49.3026529  62.3854580  90.2627112  52.5602992  58.9353627  91.2654388
  52.3039927  58.5350263  92.0962596  51.9355860  59.6497421  91.1404527
  56.8715330  61.6749700  93.7725680  56.3114888  61.7442889  94.5457242
  56.2658834  61.4990685  93.0525176  39.9410539  73.1086427  95.5243866
  39.8242923  74.0531860  95.4222556  39.1202985  72.8059989  95.9129665
  49.8287074  67.8336563  86.3700459  50.6632677  67.4017761  86.1877933
  49.6671416  67.6618577  87.2977353  49.4832966  64.3368676  87.7356798
  49.4281770  64.1712948  86.7945242  48.8579021  65.0444709  87.8918988
  34.2725481  59.5736741 101.5618220  34.9184344  59.0635695 102.0505445
  34.0642632  60.3105422 102.1361645  46.7978873  66.6417588 107.0610361
  47.6670033  66.8158240 106.6996996  46.3185624  67.4612005 106.9386090
  42.7929091  53.8376785  87.3142116  42.7807761  54.7818625  87.4710387
  43.6852513  53.6546931  87.0201578  40.9665053  73.7614689  98.7399794
  41.8692300  73.7938299  99.0566289  40.7402423  72.8315140  98.7546130
  42.7218655  72.5145676  95.4009873  41.7714286  72.5147537  95.2874245
  43.0251141  71.7678410  94.8845908  46.6081211  50.4319562  91.5688053
  45.8413606  49.8778049  91.7144736  47.0191916  50.5041431  92.4302205
  38.6122972  56.7204358 105.6593234  39.4754433  56.3641163 105.8696559
  38.0388382  56.3818253 106.3468639  58.4571349  78.3506214  96.4655635
  59.0949759  78.2312961  95.7618975  58.3392192  79.2987058  96.5243588
  55.2661055  78.3033642  96.4017160  54.9279566  78.1874707  95.5137695
  56.1350823  77.9024807  96.3818166  51.1247871  80.1569119  92.3914051
  50.5612736  80.0659056  91.6230339  51.0100266  79.3369023  92.8716544
  55.7480838  79.4568494 102.3603366  55.7369479  79.0621292 101.4883869
  55.9101477  78.7234567 102.9537137  48.6712303  81.6520310  95.2298272
  49.4633594  81.3111135  94.8144571  48.9108953  81.7615285  96.1500425
  56.7047429  83.8240086  87.7028516  56.0535409  84.4094167  87.3162530
  57.4991792  84.3546281  87.7623553  50.6303056  80.9129223  88.1015650
  51.4033932  80.3658211  87.9628526  50.9828455  81.7773473  88.3130112
  52.4688099  82.2405606 101.3082550  52.1777965  83.1451237 101.1929216
  53.1045083  82.2822133 102.0226619  53.3944306  79.6182454  97.8983909
  53.9907878  79.3938477  97.1840872  53.4519277  78.8767200  98.5009357
  52.9669334  77.0721890  85.7334100  53.2194855  76.5503411  84.9717563
  52.0293893  76.9088035  85.8360784  58.0112617  76.0757668  93.5408843
  58.7975706  75.6577091  93.1899260  58.2751321  76.9803760  93.7090492
  58.1822694  81.5130518  88.2397500  57.5468527  81.5865145  88.9518405
  57.8520101  82.1024117  87.5616580  63.4121044  76.0132901  94.4441822
  64.1446216  75.4432118  94.6779651  62.6560400  75.6254502  94.8848328
  52.6865623  78.9749996  87.9358475  52.5701881  78.2994899  88.6039559
  52.7967883  78.4882369  87.1190628  55.0297164  78.4360143  91.6405164
  54.6655371  77.9090764  92.3518086  55.8864280  78.0458612  91.4671650
  60.9346465  69.7254475  98.9036431  60.6029789  70.5949886  98.6797646
  60.3392078  69.4090759  99.5830461  54.6702651  73.4650042  86.6366513
  54.8377053  74.3330279  87.0036984  54.4799820  73.6277324  85.7127802
  57.4277984  81.9267021  98.3032343  57.1278707  82.8292060  98.1948151
  57.0829044  81.6599204  99.1553496  50.8790466  78.3780818  94.3369048
  49.9540962  78.2457032  94.5446739  51.1274879  79.1575037  94.8338990
  60.8275128  74.4449561  95.9829781  59.9192005  74.3764970  95.6888542
  60.7762724  74.9221506  96.8111606  54.6491872  75.9207700  87.6213180
  54.5291497  76.3664751  88.4598660  53.9544460  76.2693018  87.0626718
  48.2399277  78.0214092  95.1712837  48.3691658  78.2748571  96.0852249
  47.5596728  78.6141800  94.8517492  52.4098764  88.6911342  91.2703311
  52.3322794  89.6419167  91.3491792  51.8060408  88.3457214  91.9278237
  54.9015994  75.8639207 103.9264678  54.1249328  76.4233127 103.9167543
  55.5406557  76.3495990 104.4479548  62.6936774  72.6466000  97.7607655
  62.0511155  72.9398533  97.1147449  62.1891703  72.5318920  98.5660851
  60.3476938  76.3929173  88.4493514  61.2594794  76.6256560  88.2741211
  59.8386585  76.9766217  87.8868592  53.1562366  78.6724660 103.4882645
  53.8977050  79.2109704 103.2117469  52.4499351  79.2990949 103.6454197
  58.6317706  80.8153801 102.0854806  59.0401062  80.3736211 101.3409439
  57.9094967  80.2406428 102.3388999  54.9848776  75.7526408  99.4588363
  55.8309971  76.1765821  99.6023012  54.9247413  75.0960032 100.1526926
  58.9546520  81.3754991  95.8407095  58.3255383  81.5400706  95.1383163
  58.5672182  81.7896601  96.6118059  62.8335752  82.3109429  93.1951459
  62.1486790  82.6908331  92.6448492  62.9179602  82.9204756  93.9283407
  58.1348221  73.4130776 101.1169537  57.8909153  74.1672837 100.5803813
  58.4108152  73.7916124 101.9516784  60.0886684  79.9569388  99.7946803
  60.3003579  80.6001148  99.1181184  60.0416432  79.1231705  99.3268733
  57.6912913  72.5687209  96.6983375  56.8297392  72.8668463  96.9900112
  57.7175347  72.7857608  95.7664407  54.5074482  81.1129400  93.1057180
  54.9712828  81.3917103  92.3161803  54.2431280  80.2112844  92.9230271
  51.3998563  80.6600881  96.0436944  51.9699920  81.0888149  95.4054428
  51.9906675  80.3783466  96.7421129  53.4443368  77.2352552  89.9146745
  54.1467412  77.6873596  90.3820672  53.1123997  76.5936371  90.5426639
  51.8923730  75.8264309 104.2897955  51.2622390  76.5080589 104.5233352
  51.7859818  75.7147390 103.3451093  47.1868702  75.4936105  95.2163879
  46.3967756  75.7493633  94.7403990  47.6779950  76.3084442  95.3215920
  61.2032512  82.8341344  97.9669160  62.0249955  82.4321531  97.6851842
  61.1994915  82.7309578  98.9185276  49.1383448  75.8580684  92.1747356
  48.3414611  75.9699378  92.6930851  48.9109040  76.1967336  91.3088246
  54.9689115  82.3825387 100.1229870  55.0333548  82.8445794 100.9588042
  54.2600039  81.7522752 100.2512180  45.4706405  75.7466595  97.6478870
  45.7214444  76.6313605  97.9136446  46.0065954  75.5671197  96.8753962
  69.2938505  79.1780092  94.3154131  68.5402213  78.6087490  94.1598136
  69.4286046  79.1442757  95.2624766  54.6837133  84.0493495  89.9908851
  54.5482808  84.8945030  90.4193699  55.2246945  84.2512772  89.2274785
  51.1704473  70.1285074 106.6523206  50.7771418  69.5751273 107.3270850
  51.9870613  70.4395653 107.0429723  48.1366530  81.5668933  90.5636776
  48.6491051  82.3612183  90.7142340  48.7889243  80.8695223  90.4970377
  49.9461415  84.6834689  92.6459529  50.1228043  85.6052654  92.4580513
  50.7418248  84.3693108  93.0753909  54.0872433  71.5442953 104.2443462
  54.8282147  72.1450107 104.1647925  54.3190356  70.8020591 103.6861505
  49.2313772  76.7299321 102.5221692  49.1167287  75.8284578 102.8228791
  48.3758289  76.9763018 102.1706509  56.3105609  84.6717061 104.1209193
  55.8669463  83.8853440 103.8030097  56.9722823  84.8596212 103.4553084
  51.0692730  86.2012863  98.6469871  51.6200156  86.0729926  97.8746865
  50.2304206  86.5007752  98.2964764  58.4086847  84.9519861 102.1490594
  58.3905323  85.7728742 101.6570863  59.3306767  84.8273936 102.3740735
  54.8659901  82.4663990 102.9914102  55.3988238  81.7052279 102.7613410
  54.3373983  82.1737642 103.7338257  58.0329596  67.5724056  98.5207744
  57.6893866  68.4625698  98.4446855  58.4008559  67.3825714  97.6577329
  46.1015447  79.8957587  91.3396346  46.9390669  80.3054595  91.1230054
  46.2793715  78.9557029  91.3096540  57.9979879  77.5632668  87.0280179
  57.4826503  78.3337272  87.2668567  57.7257188  76.8897804  87.6513241
  55.5826990  72.4082368  92.0865418  54.7268587  72.0189219  91.9071056
  55.9953942  72.4874329  91.2265203  57.1126137  69.9428712  96.4856977
  56.6090932  69.9058847  95.6724783  57.4056744  70.8521454  96.5453634
  53.3569023  70.0267441  95.4923159  54.2222019  69.8310250  95.1329049
  53.4246532  69.7977793  96.4192516  62.9714153  80.3165022  88.9633353
  62.1943596  79.9776182  88.5188515  63.6505634  80.3217645  88.2888318
  57.7866182  75.4359760  88.8539960  57.4816318  75.7505909  89.7050104
  58.7396624  75.5141180  88.8967293  56.2312614  81.5949983  90.5032914
  55.7033976  80.8602743  90.1906152  55.7300117  82.3724659  90.2572883
  61.2105460  79.7899003  95.6199961  60.5529135  80.4798265  95.7080089
  62.0145859  80.1795435  95.9633947  50.9631342  72.2569649  92.8639526
  51.5375094  72.0344831  92.1312719  51.5502324  72.3258344  93.6168127
  60.0210919  78.1443376  93.6703902  60.5342801  78.7773368  94.1725612
  60.6712143  77.5444572  93.3047263  51.2900929  74.2874110  86.8835411
  50.4538241  74.6248797  87.2044686  51.1505699  74.1523090  85.9462548
  53.2654009  69.1310898  91.5914595  52.6118422  68.8159915  90.9671210
  53.2234484  68.5086639  92.3174418  54.3765214  79.4130193  83.5067887
  53.4692276  79.1819447  83.7059036  54.8736246  78.6167812  83.6941869
  57.2833293  88.1227700  86.4264574  56.6094992  88.4259397  87.0349531
  57.6699115  88.9256781  86.0770031  56.4991750  75.6192832  95.9162243
  55.5814311  75.8407779  95.7583931  56.9151893  75.6939142  95.0573950
  57.2826798  77.0184247  91.0464923  58.0298617  77.5305645  90.7372045
  57.5518387  76.6968300  91.9069317  55.5553448  79.5142788  88.0291878
  54.6464667  79.2301821  88.1264347  55.5848532  79.9341867  87.1695184
  60.7872715  83.1249378  91.7983045  60.3335042  82.2840287  91.8548236
  60.1566682  83.7610776  92.1357825  59.7305635  74.0541364  93.0283713
  58.9928392  73.5418750  93.3593955  59.9832408  73.6141745  92.2166989
  59.2305654  84.9625874  92.7332863  59.5228629  85.5230931  92.0145229
  59.7404275  85.2554435  93.4886022  59.8317262  66.8317616  93.6225482
  60.1376139  65.9714979  93.3351397  60.5569867  67.4235236  93.4224476
  46.1241618  77.2348302  92.0107080  45.9266018  76.6417663  91.2858146
  45.5688282  76.9300512  92.7283019  54.1038342  77.1271409  94.1301673
  54.1586952  76.1745245  94.0544150  53.2929544  77.2830848  94.6142971
  55.2529536  81.0551532  85.3679956  54.8148966  80.3387391  84.9085593
  55.9939976  81.2827647  84.8065048  52.0430702  75.7448468  91.8892052
  51.2298567  76.0442639  92.2957244  52.5389696  75.3504157  92.6066534
  54.1939280  85.7406225  93.8226316  54.1515458  85.9667072  92.8934849
  55.1101978  85.5069600  93.9712118  57.6404913  76.2090293 100.7206946
  57.9954301  76.4361766 101.5801411  58.2877045  76.5408670 100.0984201
  63.3702650  79.3308729  91.4256275  63.2320549  79.5210325  90.4977464
  63.0138869  80.0928112  91.8824326  51.5344777  73.3166824  97.5053287
  52.1744156  73.1755583  96.8076250  50.7022307  73.0301337  97.1291889
  63.3972030  81.3985256  96.4367546  63.8308537  81.3060545  97.2850600
  64.1103611  81.3742756  95.7987562  52.3105080  82.6169254  93.6188279
  53.1045679  82.1219575  93.4170854  51.5996773  82.0887118  93.2555985
  57.1299925  84.9987350  97.9700647  57.1836947  85.5678286  98.7378363
  56.2614706  85.1689235  97.6054684  48.6187844  76.7612336  89.6948032
  47.6885432  76.6996792  89.9117994  48.7145316  76.2388289  88.8984673
  48.5373393  73.2867149  92.2826274  48.7980210  74.2012482  92.1735434
  49.3590565  72.8191592  92.4322886  50.0098318  74.7004906  99.4525098
  50.6821372  74.4922268  98.8037747  49.1828105  74.5026992  99.0130330
  64.2587580  81.4408956  98.9700432  64.4523470  82.3454767  99.2159707
  64.1588198  80.9816376  99.8039017  55.9123890  71.3266847 101.4690759
  55.2651805  72.0256797 101.3755235  56.6824906  71.7602991 101.8367007
  59.3202688  81.5915699 104.5441312  59.1688195  81.3626251 103.6271396
  59.3107368  82.5486301 104.5572657  56.0888025  79.1647612  99.5287579
  57.0180085  79.3158772  99.3556546  55.6679055  79.2531633  98.6736225
  54.8876356  83.1898276  97.2986116  54.7487442  82.8217061  98.1712054
  54.0990953  83.7045916  97.1270074  55.4824508  88.2907373  88.6411653
  55.6576264  87.8195416  89.4557276  54.7957296  88.9173139  88.8692914
  56.4381572  82.5679879  94.6874954  56.1031404  82.5280649  95.5832604
  55.9385517  81.9024595  94.2145364  50.4125816  77.9747509 100.2127535
  50.2745613  77.2427748 100.8139074  51.3230739  77.8856409  99.9311723
  59.3740763  79.9135913  84.9612014  58.7569934  79.1882742  84.8645066
  58.9057252  80.6745274  84.6179088  53.0408116  77.6867468  99.7011215
  53.7507735  77.0460661  99.6597833  52.9977424  77.9380363 100.6237396
  61.0294895  84.6234822 102.6217794  60.9707441  83.9394042 101.9548377
  61.4314413  85.3653812 102.1698420  51.7537050  74.6732686 101.5206854
  51.2174407  74.2223425 102.1728451  51.1653759  74.8078595 100.7777319
  50.0485594  91.4396736  95.4151513  50.2882192  92.0715260  96.0930532
  49.2054790  91.0884776  95.7016872  51.1639309  74.1321338  84.0833318
  50.2868775  74.0110138  83.7195565  51.6397062  73.3407416  83.8312207
  61.0312302  82.5874406 100.8531774  60.1439081  82.2500327 100.9758173
  61.6010853  81.8557437 101.0900539  42.6841449  78.9198497  94.1774825
  43.3712489  78.6060227  93.5895840  42.5289578  79.8239862  93.9042077
  47.4876171  73.8088694  98.6059849  47.4034360  73.2014364  97.8710259
  46.6658878  74.2997712  98.6069345  54.5613456  87.2475858  97.8193017
  54.4883627  88.0530830  98.3312322  54.1190849  87.4467824  96.9941038
  54.3503235  86.4847628  91.3295839  53.5670757  87.0269308  91.4234063
  55.0495980  87.0021608  91.7290080  57.6599885  72.2942258  93.9730044
  58.1568585  71.5412220  93.6531114  56.8886867  72.3306574  93.4073253
  65.5129643  77.9982623  95.6148335  65.5019519  78.8807338  95.2442269
  64.6447022  77.6454174  95.4202872  57.0212139  87.1462692  99.9751176
  57.7340111  87.7810157  99.9027077  56.5302168  87.2426558  99.1591177
  58.7429666  81.0513945  91.5468467  57.8085945  81.1715407  91.3773172
  58.9206334  80.1486412  91.2828477  54.2434854  74.4359641  93.7001729
  53.8732642  73.8830681  94.3882634  54.7393946  73.8317774  93.1476729
  62.1302217  76.8931264  92.0818501  62.5962670  77.7259256  92.0078804
  62.5809718  76.4276246  92.7863760  52.0724053  84.8957136 100.7956746
  52.7733512  85.5293619 100.9486141  51.6019168  85.2371867 100.0352386
  60.1978448  83.2375085  89.0804653  60.4738292  83.1231680  89.9898528
  59.3282947  82.8392570  89.0416827  60.1018880  69.2611851  96.1209403
  59.1881960  69.4916078  96.2891610  60.5311982  69.3450295  96.9723435
  59.8725339  77.4501743  98.6209297  59.2196789  77.6977650  97.9661750
  60.2505718  76.6365881  98.2871774  56.8332512  87.4861436  92.7237467
  57.0154907  86.6683092  93.1865219  57.6565498  87.7029128  92.2862357
  57.1674678  86.4129621  89.9852516  57.6962444  85.9022076  89.3722678
  57.4302898  86.0972152  90.8498049  55.9212912  78.1921554 105.1075334
  55.2453549  78.0915683 105.7777709  56.7440545  78.0360768 105.5711331
  47.6691771  84.4293491  97.7287849  48.2545207  83.6837178  97.8615753
  47.4716609  84.7397447  98.6124513  50.5230426  87.4644738  92.7450292
  49.8540801  87.9490866  92.2614332  50.3843296  87.7113958  93.6593670
  42.2609425  76.9999091  96.4492292  42.2993525  76.4662681  97.2429410
  41.7549718  76.4734296  95.8303269  54.6635694  89.4988481  99.3432950
  55.2154002  89.6620103 100.1082035  55.0041888  90.0892919  98.6712975
  49.6400188  71.8463631  99.9454835  49.7041514  72.7078462  99.5332232
  49.5767308  71.2337633  99.2127193  49.1152460  73.9186764 103.5927869
  49.7424499  73.5363841 104.2065393  48.2580379  73.7000966 103.9583561
  45.8918003  75.7263193  89.5246224  46.1871444  74.8173871  89.4713277
  44.9906039  75.7050932  89.2027226  57.8004082  87.4470457  96.3296632
  57.6755221  86.6460197  95.8207578  58.4583173  87.9416650  95.8410602
  49.4212250  73.8019190  95.5073772  48.6998836  74.4155157  95.3681246
  50.2105506  74.3376954  95.4290418  59.8638990  85.2479477  97.9576182
  58.9169326  85.1284828  97.8854509  60.2121763  84.3601975  98.0402444
  52.2238563  71.1373616 101.7814424  52.7472965  71.3835913 102.5440733
  52.0050897  71.9693651 101.3617561  47.6205845  73.4077291  89.6485549
  47.2918551  72.5274670  89.4660655  47.9745215  73.3524959  90.5361938
  56.8685423  85.0432193  94.1580534  56.7210386  84.1148901  94.3388104
  57.6938917  85.0652284  93.6737610  50.7347668  73.6950260  90.0161027
  51.0743740  74.2236182  89.2939635  51.1819788  74.0330667  90.7919593
  60.4719545  85.8660752  95.2445407  61.3966093  85.6603613  95.1069858
  60.3034849  85.6177153  96.1534749  53.4291109  72.0787311  99.4664095
  53.0887929  71.2795124  99.8684774  52.7230115  72.3789022  98.8940928
  54.0807580  69.1636624  97.9191418  54.9033650  68.6897102  97.7970308
  54.3245644  69.9427107  98.4190104  52.7215815  72.1924882  88.2154319
  53.4424177  72.5706135  87.7118036  52.0981119  72.9113759  88.3189297
  56.8646938  72.8970031  89.1512652  57.0810552  73.7794669  88.8501480
  56.3841005  72.5056244  88.4218294  51.6046159  75.8555744  95.7283396
  51.4590740  76.1696047  96.6207678  51.1271363  76.4740645  95.1754295
  53.4642542  72.8458292  95.7764286  53.4504111  71.9499385  95.4396584
  54.1814970  72.8528956  96.4102572  55.3168673  73.2795632  97.8217413
  55.0586451  74.2012703  97.8201744  54.7853713  72.8826067  98.5117877
  60.2614861  86.3846419  90.6007499  60.4351739  85.8192842  89.8481351
  60.7543753  87.1847314  90.4186989  46.0791821  78.3961089  98.6671057
  45.5345289  79.1720897  98.7991332  46.9571171  78.7431893  98.5090179
  52.8679438  71.7272672  91.0451856  52.9895349  70.7989319  91.2442743
  52.5781480  71.7411358  90.1330171  55.7370628  69.4127583  94.1818576
  55.7592325  69.4766916  93.2270555  56.1538687  68.5732092  94.3759082
  66.1154253  79.1482842  92.2197798  66.5585399  78.3990168  91.8216922
  65.2380763  79.1392979  91.8371530  61.2490034  85.7013184  87.7004397
  61.9440939  86.3219877  87.9191711  61.5913184  84.8508535  87.9756775
  46.8657843  77.5230985 101.5601214  46.1239579  77.6713620 102.1465845
  46.5450587  77.7839250 100.6967964  63.1481457  83.1512889  89.2291728
  63.6732781  83.4900162  88.5041048  63.0603810  82.2159905  89.0454862
  54.8101506  87.0646963 101.3581604  55.1188632  86.8196110 102.2304304
  55.6076988  87.2693602 100.8700474  54.8322118  89.2184873  93.5886981
  54.3927108  88.7261251  94.2819838  55.5830235  88.6757840  93.3479056
  47.3114457  85.4096414  93.5911609  48.1372477  85.1100185  93.2110252
  46.9608509  84.6404036  94.0401398  52.2795990  84.7622882  95.6609282
  51.6575999  84.0993587  95.3611510  52.9500857  84.7884014  94.9782930
  45.5123062  83.3282740  94.5500542  44.6754970  82.9004914  94.3684544
  45.4846707  83.5215183  95.4871334  52.3520517  73.2404670 105.2541789
  52.4008673  74.1166793 104.8719558  52.8943032  72.6982063 104.6813432
  62.9573238  80.6338259 101.8475654  63.0071243  80.4688267 102.7891177
  62.8487162  79.7665518 101.4573535  51.8409497  83.3126805  89.1367743
  51.9897617  83.9962270  88.4834416  52.6475940  83.2931895  89.6517199
  60.2477001  76.6169187 103.1634961  61.1486863  76.4775652 102.8718959
  60.3224975  76.7823642 104.1033138  54.5819806  73.9936042 102.0088147
  53.7123115  74.2869608 101.7370736  54.8179286  74.5776487 102.7295411
  64.4591435  83.0535201 102.0917676  64.1676243  83.4165182 102.9281137
  63.8463566  82.3402209 101.9131008  65.6587117  80.6188081  94.6120246
  66.4934009  81.0577885  94.7757806  65.7946246  80.1426734  93.7928492
  62.7078623  78.1767816 100.5597734  63.1832745  78.3695462  99.7516585
  61.7844189  78.2327001 100.3141117  49.5962130  79.3391983  90.1428812
  49.3508172  78.4354313  90.3409022  49.7658044  79.3409133  89.2008290
  57.2858840  70.2115659  99.5253568  57.8040784  70.9476686  99.2000056
  56.9313973  70.5179652 100.3600327  48.8657777  75.0720340  87.6414973
  48.1727022  75.1464695  86.9855009  48.6209529  74.3080684  88.1636490
  57.5371434  66.6315942  95.0454464  57.8173188  65.9639131  95.6714891
  58.3222041  66.8245037  94.5329128  55.3404902  85.8074936  86.6079490
  54.7678869  86.4265123  86.1549962  55.9137696  86.3574297  87.1419412
  61.4080292  75.0533576  98.7926039  62.3597715  75.1531673  98.8138263
  61.2383743  74.2611844  99.3024124  59.4294672  72.1389159  98.9785440
  58.8344604  72.4194172  98.2831929  59.1444368  72.6283060  99.7502181
  58.5602162  86.0912086  87.7388073  59.4932835  86.0257647  87.9420948
  58.4725375  86.9268353  87.2802605  61.1890179  85.4077956  84.6992020
  61.1103810  85.0737820  85.5927778  62.0099846  85.8999724  84.6983493
  63.8868370  78.2739695  97.9068339  63.8544690  77.3355696  98.0928023
  64.4968994  78.3523732  97.1734164  55.7251701  77.1435748  83.9495543
  56.6710806  77.0141956  84.0183961  55.3465946  76.4050410  84.4264971
  64.0362859  75.0650739  97.9526622  63.5201907  74.2809195  97.7656551
  64.9202807  74.7369455  98.1173142  61.6973585  68.8091754  93.9122435
  61.4998407  68.5006843  94.7965767  62.3073291  69.5353393  94.0420365
  69.7044920  79.3355702  97.0474376  70.4348308  79.0740990  97.6082079
  69.0951865  78.5984424  97.0876444  67.7860217  77.4763565  97.6448827
  67.0593381  77.3419530  97.0365318  67.3707504  77.7840393  98.4505545
  55.6090393  81.1953494 105.4096200  56.5293403  81.3732093 105.6036246
  55.5739976  80.2509540 105.2575899  53.9094618  75.0685725  83.8850428
  53.0026073  74.7718837  83.9613142  54.1870599  74.7715543  83.0184714
  44.8272558  76.3892088  94.3349475  44.5075343  75.5357396  94.0423849
  44.2805987  76.6040666  95.0907442  48.6052466  79.1054529  98.0518981
  48.8238476  80.0371637  98.0707015  49.0178240  78.7462504  98.8373785
  55.5256684  69.6122614  90.0394669  54.7157412  69.2669699  90.4149916
  56.2141101  69.3030158  90.6282281  57.4547232  68.6900661  91.6618966
  58.0078271  69.1096115  92.3208989  57.6917318  67.7636409  91.7041922
  53.4780331  74.6787735 107.4421730  53.3777058  75.6282092 107.3733821
  53.2601873  74.3505974 106.5697800  52.6793403  71.9272660  84.0262407
  53.5412567  72.2527558  84.2858225  52.8643747  71.1404156  83.5135473
  44.6960818  80.0095000  96.3042596  44.0024290  79.5948952  95.7912551
  45.4433809  80.0515536  95.7076015  60.8326039  70.8001186  91.1697630
  60.2524708  71.4585990  90.7875683  60.5661972  69.9778531  90.7585048
  59.2829606  70.2006244  93.3718951  59.7829384  70.3122779  92.5633270
  59.9265213  69.8967297  94.0119759  53.3411601  78.1084874 106.2586792
  52.8578683  78.9085234 106.4650681  53.4272540  78.1192819 105.3054236
  46.6097561  79.9413253  94.1808611  46.5868249  80.0400941  93.2290494
  46.9198197  80.7878404  94.5025777  49.2684939  81.9989408  98.2955225
  50.2228192  81.9673351  98.2285157  49.0697462  81.5380032  99.1105451
  49.8584321  80.5690524 100.8626023  50.6777210  81.0634603 100.8860860
  50.1321129  79.6522493 100.8343591  59.6150917  72.9601277  90.2253979
  58.7276772  73.2450927  90.0074173  60.0304906  72.7995040  89.3781256
  62.9665453  72.9847798  93.9408318  63.7425843  73.4744250  94.2132935
  62.2413587  73.4105852  94.3980187  65.4038012  73.6975417  94.9982258
  65.9982503  73.4571153  94.2875567  65.4764596  72.9782548  95.6255795
  47.6235168  87.5409028  95.3125423  47.4889636  86.7809429  94.7463421
  47.2067230  88.2649928  94.8454212  58.7594131  82.7245951  84.3201999
  59.4629981  82.9295954  84.9359654  58.0356779  83.2922713  84.5851082
  59.5891941  78.4755813  90.4404269  59.5327142  78.9324364  89.6011901
  60.1420283  77.7146497  90.2627112  63.3996747  74.2645545  91.2654388
  63.1433681  73.8642180  92.0962596  62.7749615  74.9789339  91.1404527
  67.7109085  77.0041618  93.7725680  67.1508643  77.0734807  94.5457242
  67.1052588  76.8282602  93.0525176  50.7804294  88.4378345  95.5243866
  50.6636678  89.3823777  95.4222556  49.9596740  88.1351907  95.9129665
  60.6680828  83.1628481  86.3700459  61.5026432  82.7309679  86.1877933
  60.5065171  82.9910494  87.2977353  60.3226720  79.6660594  87.7356798
  60.2675524  79.5004865  86.7945242  59.6972776  80.3736627  87.8918988
  45.1119235  74.9028658 101.5618220  45.7578099  74.3927612 102.0505445
  44.9036386  75.6397340 102.1361645  53.6322846  69.1668703  87.3142116
  53.6201516  70.1110543  87.4710387  54.5246268  68.9838848  87.0201578
  51.8058808  89.0906607  98.7399794  52.7086054  89.1230217  99.0566289
  51.5796178  88.1607058  98.7546130  53.5612410  87.8437593  95.4009873
  52.6108041  87.8439455  95.2874245  53.8644896  87.0970328  94.8845908
  57.4474965  65.7611480  91.5688053  56.6807361  65.2069966  91.7144736
  57.8585670  65.8333348  92.4302205  49.4516726  72.0496275 105.6593234
  50.3148188  71.6933080 105.8696559  48.8782137  71.7110170 106.3468639
  61.9641625  95.4861036  92.3914051  61.4006490  95.3950973  91.6230339
  61.8494020  94.6660941  92.8716544  59.5106057  96.9812228  95.2298272
  60.3027349  96.6403053  94.8144571  59.7502707  97.0907203  96.1500425
  67.5441184  99.1532004  87.7028516  66.8929164  99.7386084  87.3162530
  68.3385547  99.6838199  87.7623553  61.4696811  96.2421141  88.1015650
  62.2427687  95.6950128  87.9628526  61.8222210  97.1065390  88.3130112
  63.8063089  92.4013807  85.7334100  64.0588609  91.8795329  84.9717563
  62.8687648  92.2379953  85.8360784  68.8506372  91.4049586  93.5408843
  69.6369461  90.9869009  93.1899260  69.1145076  92.3095678  93.7090492
  69.0216449  96.8422436  88.2397500  68.3862282  96.9157062  88.9518405
  68.6913855  97.4316035  87.5616580  63.5259378  94.3041913  87.9358475
  63.4095636  93.6286817  88.6039559  63.6361637  93.8174287  87.1190628
  65.8690918  93.7652060  91.6405164  65.5049126  93.2382681  92.3518086
  66.7258034  93.3750529  91.4671650  65.5096405  88.7941960  86.6366513
  65.6770808  89.6622196  87.0036984  65.3193575  88.9569242  85.7127802
  61.7184220  93.7072736  94.3369048  60.7934717  93.5748950  94.5446739
  61.9668633  94.4866955  94.8338990  65.4885626  91.2499618  87.6213180
  65.3685252  91.6956668  88.4598660  64.7938215  91.5984935  87.0626718
  59.0793031  93.3506009  95.1712837  59.2085412  93.6040488  96.0852249
  58.3990482  93.9433717  94.8517492  71.1870692  91.7221091  88.4493514
  72.0988549  91.9548477  88.2741211  70.6780340  92.3058135  87.8868592
  68.5306667  87.8979127  96.6983375  67.6691146  88.1960380  96.9900112
  68.5569102  88.1149526  95.7664407  65.3468237  96.4421317  93.1057180
  65.8106582  96.7209020  92.3161803  65.0825035  95.5404762  92.9230271
  64.2837123  92.5644470  89.9146745  64.9861166  93.0165513  90.3820672
  63.9517751  91.9228288  90.5426639  58.0262457  90.8228022  95.2163879
  57.2361511  91.0785551  94.7403990  58.5173704  91.6376360  95.3215920
  59.9777202  91.1872602  92.1747356  59.1808365  91.2991296  92.6930851
  59.7502794  91.5259254  91.3088246  56.3100160  91.0758513  97.6478870
  56.5608198  91.9605523  97.9136446  56.8459708  90.8963114  96.8753962
  65.5230887  99.3785412  89.9908851  65.3876562 100.2236948  90.4193699
  66.0640700  99.5804690  89.2274785  58.9760285  96.8960850  90.5636776
  59.4884805  97.6904101  90.7142340  59.6282998  96.1987141  90.4970377
  60.7855169 100.0126607  92.6459529  60.9621798 100.9344571  92.4580513
  61.5812003  99.6985026  93.0753909  68.8723351  82.9015974  98.5207744
  68.5287620  83.7917616  98.4446855  69.2402314  82.7117632  97.6577329
  56.9409202  95.2249505  91.3396346  57.7784424  95.6346513  91.1230054
  57.1187469  94.2848947  91.3096540  68.8373634  92.8924585  87.0280179
  68.3220257  93.6629190  87.2668567  68.5650942  92.2189721  87.6513241
  66.4220745  87.7374286  92.0865418  65.5662341  87.3481136  91.9071056
  66.8347696  87.8166247  91.2265203  67.9519891  85.2720629  96.4856977
  67.4484687  85.2350764  95.6724783  68.2450498  86.1813372  96.5453634
  64.1962777  85.3559359  95.4923159  65.0615774  85.1602168  95.1329049
  64.2640286  85.1269711  96.4192516  73.8107908  95.6456940  88.9633353
  73.0337351  95.3068099  88.5188515  74.4899389  95.6509563  88.2888318
  68.6259937  90.7651677  88.8539960  68.3210072  91.0797826  89.7050104
  69.5790379  90.8433097  88.8967293  67.0706369  96.9241901  90.5032914
  66.5427730  96.1894660  90.1906152  66.5693871  97.7016577  90.2572883
  61.8025096  87.5861567  92.8639526  62.3768848  87.3636748  92.1312719
  62.3896079  87.6550261  93.6168127  62.1294683  89.6166028  86.8835411
  61.2931996  89.9540714  87.2044686  61.9899453  89.4815008  85.9462548
  64.1047764  84.4602816  91.5914595  63.4512176  84.1451833  90.9671210
  64.0628238  83.8378556  92.3174418  65.2158969  94.7422111  83.5067887
  64.3086031  94.5111364  83.7059036  65.7130001  93.9459730  83.6941869
  68.1227048 103.4519618  86.4264574  67.4488746 103.7551315  87.0349531
  68.5092870 104.2548698  86.0770031  67.3385504  90.9484749  95.9162243
  66.4208066  91.1699696  95.7583931  67.7545648  91.0231060  95.0573950
  68.1220552  92.3476165  91.0464923  68.8692371  92.8597562  90.7372045
  68.3912142  92.0260218  91.9069317  66.3947202  94.8434706  88.0291878
  65.4858422  94.5593739  88.1264347  66.4242286  95.2633784  87.1695184
  70.5699389  89.3833281  93.0283713  69.8322146  88.8710668  93.3593955
  70.8226163  88.9433663  92.2166989  70.6711017  82.1609533  93.6225482
  70.9769893  81.3006897  93.3351397  71.3963621  82.7527153  93.4224476
  56.9635373  92.5640220  92.0107080  56.7659772  91.9709581  91.2858146
  56.4082037  92.2592430  92.7283019  64.9432096  92.4563326  94.1301673
  64.9980706  91.5037163  94.0544150  64.1323298  92.6122765  94.6142971
  66.0923290  96.3843449  85.3679956  65.6542720  95.6679308  84.9085593
  66.8333731  96.6119564  84.8065048  62.8824456  91.0740386  91.8892052
  62.0692322  91.3734557  92.2957244  63.3783450  90.6796075  92.6066534
  74.2096405  94.6600646  91.4256275  74.0714303  94.8502242  90.4977464
  73.8532624  95.4220029  91.8824326  62.3738531  88.6458742  97.5053287
  63.0137910  88.5047501  96.8076250  61.5416062  88.3593255  97.1291889
  63.1498835  97.9461172  93.6188279  63.9439433  97.4511492  93.4170854
  62.4390527  97.4179035  93.2555985  59.4581598  92.0904254  89.6948032
  58.5279186  92.0288709  89.9117994  59.5539070  91.5680207  88.8984673
  59.3767147  88.6159067  92.2826274  59.6373965  89.5304400  92.1735434
  60.1984320  88.1483509  92.4322886  60.8492073  90.0296824  99.4525098
  61.5215126  89.8214186  98.8037747  60.0221859  89.8318910  99.0130330
  66.3218263 103.6199291  88.6411653  66.4970019 103.1487334  89.4557276
  65.6351051 104.2465057  88.8692914  70.2134518  95.2427831  84.9612014
  69.5963688  94.5174659  84.8645066  69.7451006  96.0037191  84.6179088
  62.0033064  89.4613255  84.0833318  61.1262530  89.3402056  83.7195565
  62.4790817  88.6699334  83.8312207  53.5235204  94.2490415  94.1774825
  54.2106244  93.9352145  93.5895840  53.3683332  95.1531780  93.9042077
  58.3269926  89.1380612  98.6059849  58.2428115  88.5306281  97.8710259
  57.5052632  89.6289630  98.6069345  68.4993640  87.6234175  93.9730044
  68.9962339  86.8704138  93.6531114  67.7280621  87.6598492  93.4073253
  69.5823420  96.3805862  91.5468467  68.6479699  96.5007325  91.3773172
  69.7600089  95.4778329  91.2828477  65.0828609  89.7651558  93.7001729
  64.7126396  89.2122599  94.3882634  65.5787701  89.1609692  93.1476729
  72.9695972  92.2223182  92.0818501  73.4356424  93.0551173  92.0078804
  73.4203472  91.7568163  92.7863760  71.0372203  98.5667003  89.0804653
  71.3132047  98.4523598  89.9898528  70.1676702  98.1684488  89.0416827
  70.9412635  84.5903769  96.1209403  70.0275714  84.8207996  96.2891610
  71.3705736  84.6742213  96.9723435  68.0068432 101.7421539  89.9852516
  68.5356199 101.2313994  89.3722678  68.2696652 101.4264069  90.8498049
  53.1003180  92.3291008  96.4492292  53.1387279  91.7954599  97.2429410
  52.5943473  91.8026214  95.8303269  60.4793942  87.1755549  99.9454835
  60.5435269  88.0370380  99.5332232  60.4161062  86.5629551  99.2127193
  56.7311757  91.0555111  89.5246224  57.0265199  90.1465789  89.4713277
  55.8299793  91.0342850  89.2027226  60.2606004  89.1311107  95.5073772
  59.5392590  89.7447075  95.3681246  61.0499260  89.6668872  95.4290418
  58.4599599  88.7369208  89.6485549  58.1312305  87.8566587  89.4660655
  58.8138970  88.6816877  90.5361938  61.5741422  89.0242178  90.0161027
  61.9137495  89.5528099  89.2939635  62.0213543  89.3622584  90.7919593
  64.2684863  87.4079229  99.4664095  63.9281683  86.6087042  99.8684774
  63.5623869  87.7080940  98.8940928  64.9201335  84.4928541  97.9191418
  65.7427404  84.0189019  97.7970308  65.1639398  85.2719025  98.4190104
  63.5609569  87.5216800  88.2154319  64.2817932  87.8998052  87.7118036
  62.9374873  88.2405676  88.3189297  67.7040692  88.2261949  89.1512652
  67.9204307  89.1086587  88.8501480  67.2234759  87.8348162  88.4218294
  62.4439914  91.1847662  95.7283396  62.2984494  91.4987965  96.6207678
  61.9665117  91.8032562  95.1754295  64.3036296  88.1750210  95.7764286
  64.2897865  87.2791303  95.4396584  65.0208725  88.1820874  96.4102572
  66.1562427  88.6087550  97.8217413  65.8980205  89.5304621  97.8201744
  65.6247468  88.2117985  98.5117877  56.9185576  93.7253006  98.6671057
  56.3739044  94.5012814  98.7991332  57.7964926  94.0723811  98.5090179
  63.7073192  87.0564590  91.0451856  63.8289104  86.1281236  91.2442743
  63.4175235  87.0703276  90.1330171  66.5764383  84.7419501  94.1818576
  66.5986080  84.8058834  93.2270555  66.9932442  83.9024009  94.3759082
  72.0883788 101.0305102  87.7004397  72.7834693 101.6511794  87.9191711
  72.4306939 100.1800453  87.9756775  73.9875212  98.4804807  89.2291728
  74.5126536  98.8192080  88.5041048  73.8997564  97.5451822  89.0454862
  58.1508211 100.7388331  93.5911609  58.9766231 100.4392103  93.2110252
  57.8002263  99.9695954  94.0401398  56.3516816  98.6574658  94.5500542
  55.5148725  98.2296832  94.3684544  56.3240462  98.8507101  95.4871334
  62.6803251  98.6418723  89.1367743  62.8291372  99.3254187  88.4834416
  63.4869695  98.6223813  89.6517199  60.4355884  94.6683900  90.1428812
  60.1901926  93.7646230  90.3409022  60.6051799  94.6701051  89.2008290
  59.7051532  90.4012258  87.6414973  59.0120777  90.4756613  86.9855009
  59.4603284  89.6372602  88.1636490  68.3765188  81.9607859  95.0454464
  68.6566942  81.2931048  95.6714891  69.1615795  82.1536955  94.5329128
  66.1798657 101.1366853  86.6079490  65.6072624 101.7557040  86.1549962
  66.7531451 101.6866215  87.1419412  69.3995917 101.4204003  87.7388073
  70.3326590 101.3549565  87.9420948  69.3119130 102.2560270  87.2802605
  72.0283933 100.7369874  84.6992020  71.9497565 100.4029737  85.5927778
  72.8493600 101.2291642  84.6983493  66.5645455  92.4727666  83.9495543
  67.5104560  92.3433874  84.0183961  66.1859700  91.7342328  84.4264971
  72.5367340  84.1383672  93.9122435  72.3392161  83.8298760  94.7965767
  73.1467046  84.8645311  94.0420365  64.7488373  90.3977642  83.8850428
  63.8419828  90.1010755  83.9613142  65.0264354  90.1007460  83.0184714
  55.6666313  91.7184006  94.3349475  55.3469097  90.8649314  94.0423849
  55.1199741  91.9332584  95.0907442  66.3650438  84.9414532  90.0394669
  65.5551167  84.5961617  90.4149916  67.0534855  84.6322076  90.6282281
  68.2940987  84.0192579  91.6618966  68.8472025  84.4388032  92.3208989
  68.5311073  83.0928327  91.7041922  63.5187157  87.2564578  84.0262407
  64.3806321  87.5819476  84.2858225  63.7037501  86.4696074  83.5135473
  55.5354573  95.3386917  96.3042596  54.8418044  94.9240870  95.7912551
  56.2827564  95.3807454  95.7076015  71.6719794  86.1293104  91.1697630
  71.0918463  86.7877908  90.7875683  71.4055726  85.3070449  90.7585048
  70.1223360  85.5298162  93.3718951  70.6223138  85.6414696  92.5633270
  70.7658968  85.2259215  94.0119759  57.4491315  95.2705171  94.1808611
  57.4262004  95.3692858  93.2290494  57.7591952  96.1170322  94.5025777
  70.4544672  88.2893194  90.2253979  69.5670527  88.5742845  90.0074173
  70.8698661  88.1286958  89.3781256  73.8059208  88.3139715  93.9408318
  74.5819598  88.8036168  94.2132935  73.0807342  88.7397770  94.3980187
  69.5987885  98.0537869  84.3201999  70.3023735  98.2587872  84.9359654
  68.8750534  98.6214631  84.5851082  70.4285695  93.8047730  90.4404269
  70.3720897  94.2616282  89.6011901  70.9814038  93.0438415  90.2627112
  74.2390501  89.5937462  91.2654388  73.9827436  89.1934098  92.0962596
  73.6143369  90.3081256  91.1404527  71.5074583  98.4920398  86.3700459
  72.3420186  98.0601597  86.1877933  71.3458925  98.3202412  87.2977353
  71.1620475  94.9952512  87.7356798  71.1069279  94.8296783  86.7945242
  70.5366530  95.7028545  87.8918988  64.4716600  84.4960621  87.3142116
  64.4595270  85.4402461  87.4710387  65.3640022  84.3130766  87.0201578
  68.2868720  81.0903397  91.5688053  67.5201115  80.5361884  91.7144736
  68.6979425  81.1625266  92.4302205  72.8426818 104.7905173  84.0833318
  71.9656284 104.6693974  83.7195565  73.3184571 103.9991251  83.8312207
  75.5882127 105.7269560  83.8850428  74.6813582 105.4302673  83.9613142
  75.8658108 105.4299378  83.0184714  74.3580912 102.5856495  84.0262407
  75.2200076 102.9111394  84.2858225  74.5431256 101.7987991  83.5135473
  75.3110355  99.8252538  87.3142116  75.2989025 100.7694378  87.4710387
  76.2033777  99.6422684  87.0201578  25.9390086   9.3692584  83.1900942
  26.5768496   9.2499331  82.4864282  25.8210929  10.3173428  83.2488894
  18.6066608  11.1755488  79.1159358  18.0431474  11.0845425  78.3475645
  18.4919003  10.3555393  79.5961850  24.1866167  14.8426456  74.4273823
  23.5354147  15.4280536  74.0407836  24.9810530  15.3732651  74.4868860
  18.1121794  11.9315593  74.8260957  18.8852670  11.3844580  74.6873833
  18.4647193  12.7959842  75.0375418  20.4488072   8.0908259  72.4579407
  20.7013593   7.5689780  71.6962870  19.5112631   7.9274405  72.5606090
  25.4931355   7.0944038  80.2654150  26.2794444   6.6763461  79.9144567
  25.7570059   7.9990130  80.4335798  25.6641432  12.5316888  74.9642807
  25.0287265  12.6051514  75.6763712  25.3338839  13.1210487  74.2861886
  30.8939782   7.0319271  81.1687129  31.6264954   6.4618488  81.4024958
  30.1379138   6.6440871  81.6093634  20.1684361   9.9936365  74.6603782
  20.0520619   9.3181268  75.3284866  20.2786621   9.5068739  73.8435935
  22.5115902   9.4546512  78.3650471  22.1474109   8.9277133  79.0763393
  23.3683018   9.0644981  78.1916956  22.1521389   4.4836412  73.3611820
  22.3195791   5.3516648  73.7282291  21.9618558   4.6463694  72.4373109
  22.1310610   6.9394069  74.3458486  22.0110235   7.3851120  75.1843967
  21.4363198   7.2879387  73.7872025  19.8917502  19.7097711  77.9948618
  19.8141531  20.6605536  78.0737098  19.2879145  19.3643584  78.6523544
  27.8295676   7.4115543  75.1738820  28.7413532   7.6442929  74.9986518
  27.3205323   7.9952587  74.6113899  26.4365258  12.3941361  82.5652402
  25.8074121  12.5587075  81.8628470  26.0490920  12.8082971  83.3363366
  30.3154490  13.3295799  79.9196766  29.6305528  13.7094700  79.3693799
  30.3998339  13.9391126  80.6528713  21.9893220  12.1315769  79.8302487
  22.4531566  12.4103472  79.0407109  21.7250018  11.2299214  79.6475578
  20.9262106   8.2538922  76.6392052  21.6286149   8.7059965  77.1065978
  20.5942735   7.6122740  77.2671945  28.6851250  13.8527713  84.6914467
  29.5068693  13.4507901  84.4097148  28.6813652  13.7495948  85.6430582
  36.7757243  10.1966462  81.0399438  36.0220951   9.6273860  80.8843442
  36.9104784  10.1629126  81.9870073  22.1655871  15.0679864  76.7154157
  22.0301545  15.9131400  77.1439005  22.7065683  15.2699142  75.9520091
  15.6185268  12.5855302  77.2882082  16.1309789  13.3798552  77.4387647
  16.2707981  11.8881593  77.2215684  17.4280153  15.7021058  79.3704836
  17.6046781  16.6239023  79.1825820  18.2236986  15.3879478  79.7999215
  18.5511468  17.2199232  85.3715178  19.1018893  17.0916296  84.5992172
  17.7122944  17.5194121  85.0210071  13.5834185  10.9143956  78.0641653
  14.4209407  11.3240965  77.8475361  13.7612453   9.9743399  78.0341847
  25.4798617   8.5819037  73.7525486  24.9645240   9.3523642  73.9913873
  25.2075925   7.9084173  74.3758547  23.0645728   3.4268738  78.8110724
  22.2087324   3.0375588  78.6316363  23.4772680   3.5060699  77.9510510
  30.4532891  11.3351392  75.6878659  29.6762334  10.9962551  75.2433821
  31.1324372  11.3404015  75.0133624  25.2684920   6.4546129  75.5785267
  24.9635056   6.7692278  76.4295410  26.2215362   6.5327549  75.6212600
  23.7131352  12.6136353  77.2278221  23.1852714  11.8789112  76.9151459
  23.2118855  13.3911029  76.9818189  28.6924198  10.8085373  82.3445267
  28.0347872  11.4984634  82.4325396  29.4964597  11.1981805  82.6879254
  27.5029657   9.1629746  80.3949209  28.0161539   9.7959738  80.8970919
  28.1530881   8.5630941  80.0292569  18.7719667   5.3060480  73.6080718
  17.9356979   5.6435166  73.9289993  18.6324436   5.1709460  72.6707855
  21.8583952  10.4316563  70.2313194  20.9511014  10.2005816  70.4304343
  22.3554984   9.6354182  70.4187176  24.7652031  19.1414070  73.1509880
  24.0913730  19.4445767  73.7594838  25.1517853  19.9443150  72.8015337
  24.7645535   8.0370617  77.7710230  25.5117354   8.5492014  77.4617352
  25.0337125   7.7154670  78.6314623  23.0372186  10.5329158  74.7537184
  22.1283405  10.2488190  74.8509654  23.0667269  10.9528236  73.8940491
  28.2691453  14.1435747  78.5228352  27.8153780  13.3026657  78.5793542
  27.6385420  14.7797146  78.8603132  27.2124373   5.0727733  79.7529019
  26.4747129   4.5605119  80.0839262  27.4651146   4.6328115  78.9412296
  26.7124392  15.9812244  79.4578170  27.0047367  16.5417301  78.7390536
  27.2223013  16.2740805  80.2131329  22.7348273  12.0737901  72.0925263
  22.2967703  11.3573760  71.6330900  23.4758714  12.3014016  71.5310354
  19.5249440   6.7634838  78.6137358  18.7117305   7.0629009  79.0202551
  20.0208434   6.3690527  79.3311841  21.6758017  16.7592595  80.5471623
  21.6334196  16.9853441  79.6180155  22.5920716  16.5255970  80.6957424
  30.8521388  10.3495098  78.1501581  30.7139287  10.5396694  77.2222771
  30.4957607  11.1114481  78.6069632  30.8790768  12.4171625  83.1612853
  31.3127274  12.3246914  84.0095907  31.5922348  12.3929126  82.5232869
  19.7923818  13.6355624  80.3433586  20.5864417  13.1405944  80.1416161
  19.0815511  13.1073487  79.9801291  24.6118663  16.0173719  84.6945953
  24.6655685  16.5864656  85.4623669  23.7433444  16.1875605  84.3299991
  16.1006582   7.7798706  76.4193339  15.1704170   7.7183161  76.6363301
  16.1964054   7.2574658  75.6229980  31.7406317  12.4595326  85.6945738
  31.9342207  13.3641137  85.9405013  31.6406935  12.0002745  86.5284323
  22.3695094  14.2084646  84.0231423  22.2306180  13.8403430  84.8957361
  21.5809690  14.7232285  83.8515381  22.9643246  19.3093742  75.3656959
  23.1395002  18.8381786  76.1802582  22.2776034  19.9359509  75.5938220
  23.9200309  13.5866249  81.4120261  23.5850142  13.5467019  82.3077911
  23.4204255  12.9210965  80.9390671  26.8559501  10.9322283  71.6857320
  26.2388672  10.2069111  71.5890373  26.3875989  11.6931643  71.3424395
  17.5304331  22.4583105  82.1396820  17.7700930  23.0901629  82.8175838
  16.6873528  22.1071145  82.4262179  18.6458047   5.1507707  70.8078625
  17.7687513   5.0296508  70.4440871  19.1215800   4.3593786  70.5557513
  22.0432193  18.2662228  84.5438324  21.9702365  19.0717199  85.0557628
  21.6009586  18.4654193  83.7186345  21.8321973  17.5033998  78.0541145
  21.0489495  18.0455678  78.1479370  22.5314718  18.0207977  78.4535386
  32.9948380   9.0168993  82.3393642  32.9838257   9.8993708  81.9687575
  32.1265760   8.6640543  82.1448179  24.5030877  18.1649062  86.6996482
  25.2158849  18.7996526  86.6272384  24.0120905  18.2612928  85.8836484
  26.2248404  12.0700314  78.2713774  25.2904682  12.1901777  78.1018478
  26.4025072  11.1672781  78.0073784  29.6120955   7.9117634  78.8063808
  30.0781407   8.7445625  78.7324111  30.0628456   7.4462615  79.5109067
  27.6797186  14.2561455  75.8049960  27.9557030  14.1418049  76.7143834
  26.8101685  13.8578940  75.7662133  24.3151250  18.5047806  79.4482774
  24.4973645  17.6869462  79.9110526  25.1384236  18.7215498  79.0107664
  24.6493416  17.4315991  76.7097822  25.1781182  16.9208445  76.0967984
  24.9121635  17.1158521  77.5743355  18.0049164  18.4831108  79.4695598
  17.3359539  18.9677235  78.9859638  17.8662033  18.7300328  80.3838977
  22.1454432  20.5174851  86.0678257  22.6972740  20.6806473  86.8327342
  22.4860626  21.1079289  85.3958281  25.2822820  18.4656827  83.0541939
  25.1573959  17.6646566  82.5452884  25.9401911  18.9603020  82.5655909
  27.3457728  16.2665847  84.6821489  26.3988063  16.1471198  84.6099816
  27.6940501  15.3788345  84.7647750  24.3504161  16.0618563  80.8825841
  24.2029124  15.1335270  81.0633411  25.1757655  16.0838654  80.3982916
  18.2166405   4.7136630  76.7406333  18.5562478   5.2422551  76.0184942
  18.6638526   5.0517036  77.5164900  27.9538283  16.8847122  81.9690714
  28.8784831  16.6789983  81.8315165  27.7853586  16.6363523  82.8780055
  20.2034553   3.2111252  74.9399626  20.9242915   3.5892504  74.4363343
  19.5799857   3.9300128  75.0434604  24.3465676   3.9156401  75.8757958
  24.5629290   4.7981038  75.5746786  23.8659743   3.5242614  75.1463600
  27.7433599  17.4032789  77.3252805  27.9170477  16.8379212  76.5726658
  28.2362490  18.2033684  77.1432295  33.5972990  10.1669212  78.9443105
  34.0404136   9.4176537  78.5462228  32.7199501  10.1579348  78.5616837
  28.7308772  16.7199553  74.4249703  29.4259676  17.3406246  74.6437018
  29.0731922  15.8694905  74.7002081  30.6300195  14.1699259  75.9537034
  31.1551519  14.5086532  75.2286354  30.5422547  13.2346274  75.7700169
  22.3140856  20.2371242  80.3132287  21.8745846  19.7447621  81.0065144
  23.0648973  19.6944210  80.0724363  14.7933195  16.4282783  80.3156916
  15.6191215  16.1286555  79.9355559  14.4427247  15.6590406  80.7646704
  19.7614728  15.7809251  82.3854589  19.1394737  15.1179956  82.0856817
  20.4319595  15.8070383  81.7028237  19.3228235  14.3313175  75.8613050
  19.4716355  15.0148639  75.2079722  20.1294678  14.3118265  76.3762505
  33.1405855  11.6374450  81.3365553  33.9752747  12.0764254  81.5003113
  33.2764984  11.1613104  80.5173798  17.0780868  10.3578352  76.8674119
  16.8326910   9.4540682  77.0654329  17.2476782  10.3595503  75.9253597
  22.8223640  16.8261305  73.3324797  22.2497607  17.4451492  72.8795269
  23.3956434  17.3760667  73.8664719  26.0420900  17.1098455  74.4633379
  26.9751573  17.0444017  74.6666255  25.9544113  17.9454722  74.0047912
  28.6708917  16.4264326  71.4237327  28.5922548  16.0924189  72.3173085
  29.4918583  16.9186094  71.4228799  31.3687108   9.2926065  84.6313646
  31.3363428   8.3542066  84.8173329  31.9787731   9.3710102  83.8979470
  23.2070439   8.1622118  70.6740850  24.1529543   8.0328326  70.7429268
  22.8284684   7.4236780  71.1510278  37.1863658  10.3542072  83.7719682
  37.9167046  10.0927360  84.3327386  36.5770603   9.6170794  83.8121750
  35.2678955   8.4949934  84.3694134  34.5412118   8.3605899  83.7610625
  34.8526242   8.8026763  85.1750852  21.3913356   6.0872094  70.6095735
  20.4844811   5.7905207  70.6858448  21.6689337   5.7901912  69.7430021
  28.3144777   1.8187556  77.8942937  27.7343446   2.4772360  77.5120989
  28.0480710   0.9964901  77.4830354  27.0969655   3.9787646  76.9499285
  26.2095510   4.2637297  76.7319480  27.5123644   3.8181410  76.1026562
  30.4484191   4.0034167  80.6653624  31.2244581   4.4930620  80.9378241
  29.7232325   4.4292222  81.1225494  32.8856750   4.7161787  81.7227565
  33.4801241   4.4757523  81.0120873  32.9583333   3.9968917  82.3501101
  15.1053905  18.5595398  82.0370730  14.9708373  17.7995798  81.4708728
  14.6885968  19.2836297  81.5699519  26.2412868  13.7432321  71.0447305
  26.9448719  13.9482324  71.6604961  25.5175517  14.3109083  71.3096389
  27.0710679   9.4942182  77.1649575  27.0145880   9.9510734  76.3257208
  27.6239021   8.7332867  76.9872418  30.8815485   5.2831914  77.9899695
  30.6252419   4.8828550  78.8207903  30.2568353   5.9975708  77.8649834
  35.1927822   8.0227987  80.4970986  34.6327380   8.0921177  81.2702548
  34.5871326   7.8468972  79.7770483  18.2623031  19.4564715  82.2489173
  18.1455415  20.4010147  82.1467863  17.4415478  19.1538276  82.6374972
  28.1499566  14.1814850  73.0945765  28.9845170  13.7496049  72.9123240
  27.9883909  14.0096864  74.0222660  27.8045458  10.6846964  74.4602105
  27.7494262  10.5191235  73.5190549  27.1791513  11.3922996  74.6164294
  19.2877545  20.1092976  85.4645101  20.1904792  20.1416587  85.7811596
  19.0614915  19.1793427  85.4791437  21.0431147  18.8623963  82.1255180
  20.0926778  18.8625825  82.0119552  21.3463634  18.1156698  81.6091214
  36.7783841  24.6984501  83.1900942  37.4162251  24.5791249  82.4864282
  36.6604684  25.6465345  83.2488894  33.5873547  24.6511929  83.1262467
  33.2492059  24.5352994  82.2383002  34.4563315  24.2503095  83.1063473
  29.4460363  26.5047406  79.1159358  28.8825228  26.4137343  78.3475645
  29.3312758  25.6847310  79.5961850  34.0693330  25.8046781  89.0848672
  34.0581971  25.4099579  88.2129176  34.2313970  25.0712854  89.6782444
  26.9924795  27.9998597  81.9543578  27.7846087  27.6589422  81.5389877
  27.2321445  28.1093573  82.8745731  35.0259922  30.1718374  74.4273823
  34.3747901  30.7572454  74.0407836  35.8204284  30.7024568  74.4868860
  28.9515549  27.2607511  74.8260957  29.7246425  26.7136498  74.6873833
  29.3040948  28.1251760  75.0375418  30.7900591  28.5883893  88.0327856
  30.4990457  29.4929524  87.9174523  31.4257576  28.6300421  88.7471926
  31.7156798  25.9660742  84.6229216  32.3120370  25.7416764  83.9086179
  31.7731770  25.2245487  85.2254664  31.2881827  23.4200177  72.4579407
  31.5407347  22.8981698  71.6962870  30.3506386  23.2566322  72.5606090
  36.3325109  22.4235955  80.2654150  37.1188199  22.0055378  79.9144567
  36.5963814  23.3282047  80.4335798  36.5035187  27.8608806  74.9642807
  35.8681020  27.9343432  75.6763712  36.1732593  28.4502404  74.2861886
  41.7333537  22.3611188  81.1687129  42.4658708  21.7910405  81.4024958
  40.9772892  21.9732789  81.6093634  31.0078115  25.3228283  74.6603782
  30.8914373  24.6473186  75.3284866  31.1180375  24.8360657  73.8435935
  33.3509656  24.7838430  78.3650471  32.9867863  24.2569051  79.0763393
  34.2076772  24.3936899  78.1916956  39.2558957  16.0732763  85.6281737
  38.9242282  16.9428173  85.4042952  38.6604570  15.7569047  86.3075768
  32.9915143  19.8128330  73.3611820  33.1589546  20.6808566  73.7282291
  32.8012312  19.9755611  72.4373109  35.7490476  28.2745308  85.0277650
  35.4491200  29.1770347  84.9193457  35.4041536  28.0077492  85.8798803
  29.2002958  24.7259105  81.0614354  28.2753454  24.5935319  81.2692046
  29.4487371  25.5053325  81.5584297  39.1487620  20.7927849  82.7075087
  38.2404498  20.7243257  82.4133848  39.0975216  21.2699794  83.5356913
  32.9704364  22.2685987  74.3458486  32.8503989  22.7143038  75.1843967
  32.2756952  22.6171305  73.7872025  26.5611769  24.3692379  81.8958143
  26.6904150  24.6226858  82.8097555  25.8809220  24.9620087  81.5762798
  30.7311256  35.0389629  77.9948618  30.6535286  35.9897454  78.0737098
  30.1272900  34.6935501  78.6523544  33.2228486  22.2117494  90.6509985
  32.4461820  22.7711414  90.6412849  33.8619049  22.6974277  91.1724855
  41.0149267  18.9944287  84.4852961  40.3723647  19.2876820  83.8392756
  40.5104195  18.8797207  85.2906158  38.6689430  22.7407460  75.1738820
  39.5807286  22.9734847  74.9986518  38.1599077  23.3244504  74.6113899
  31.4774858  25.0202948  90.2127952  32.2189543  25.5587992  89.9362775
  30.7711844  25.6469236  90.3699503  36.9530198  27.1632088  88.8100113
  37.3613554  26.7214499  88.0654745  36.2307459  26.5884716  89.0634306
  33.3061268  22.1004695  86.1833670  34.1522463  22.5244108  86.3268319
  33.2459906  21.4438319  86.8772233  37.2759013  27.7233279  82.5652402
  36.6467875  27.8878993  81.8628470  36.8884675  28.1374888  83.3363366
  41.1548244  28.6587717  79.9196766  40.4699283  29.0386618  79.3693799
  41.2392094  29.2683043  80.6528713  36.4560713  19.7609063  87.8414844
  36.2121645  20.5151124  87.3049119  36.7320644  20.1394411  88.6762091
  38.4099176  26.3047676  86.5192109  38.6216071  26.9479435  85.8426490
  38.3628924  25.4709992  86.0514039  36.0125405  18.9165496  83.4228681
  35.1509884  19.2146750  83.7145419  36.0387840  19.1335895  82.4909714
  32.8286974  27.4607687  79.8302487  33.2925320  27.7395390  79.0407109
  32.5643773  26.5591131  79.6475578  29.7211056  27.0079168  82.7682250
  30.2912413  27.4366437  82.1299735  30.3119167  26.7261753  83.4666436
  31.7655861  23.5830839  76.6392052  32.4679904  24.0351883  77.1065978
  31.4336489  22.9414658  77.2671945  30.2136222  22.1742596  91.0143262
  29.5834883  22.8558877  91.2478658  30.1072310  22.0625677  90.0696400
  25.5081194  21.8414392  81.9409186  24.7180248  22.0971920  81.4649296
  25.9992442  22.6562730  82.0461226  39.5245004  29.1819631  84.6914467
  40.3462448  28.7799818  84.4097148  39.5207407  29.0787865  85.6430582
  27.4595940  22.2058971  78.8992662  26.6627103  22.3177665  79.4176158
  27.2321532  22.5445623  78.0333553  33.2901607  28.7303674  86.8475177
  33.3546040  29.1924082  87.6833349  32.5812531  28.1001039  86.9757487
  23.7918897  22.0944882  84.3724176  24.0426936  22.9791892  84.6381752
  24.3278446  21.9149484  83.5999268  47.6150997  25.5258379  81.0399438
  46.8614705  24.9565778  80.8843442  47.7498538  25.4921044  81.9870073
  33.0049625  30.3971782  76.7154157  32.8695300  31.2423318  77.1439005
  33.5459438  30.5991059  75.9520091  26.4579023  27.9147220  77.2882082
  26.9703543  28.7090470  77.4387647  27.1101735  27.2173510  77.2215684
  28.2673907  31.0312976  79.3704836  28.4440536  31.9530941  79.1825820
  29.0630741  30.7171395  79.7999215  32.4084926  17.8921241  90.9688769
  33.1494639  18.4928394  90.8893232  32.6402849  17.1498879  90.4106812
  27.5526264  23.0777608  89.2466999  27.4379779  22.1762865  89.5474098
  26.6970782  23.3241305  88.8951815  34.6318102  31.0195348  90.8454499
  34.1881956  30.2331727  90.5275404  35.2935315  31.2074499  90.1798390
  29.3905223  32.5491150  85.3715178  29.9412648  32.4208213  84.5992172
  28.5516699  32.8486039  85.0210071  36.7299340  31.2998148  88.8735901
  36.7117815  32.1207029  88.3816170  37.6519260  31.1752223  89.0986042
  33.1872394  28.8142278  89.7159409  33.7200731  28.0530566  89.4858717
  32.6586475  28.5215930  90.4583564  36.3542089  13.9202344  85.2453051
  36.0106358  14.8103985  85.1692161  36.7221051  13.7304001  84.3822636
  24.4227939  26.2435874  78.0641653  25.2603161  26.6532883  77.8475361
  24.6006207  25.3035316  78.0341847  36.3192371  23.9110955  73.7525486
  35.8038995  24.6815559  73.9913873  36.0469680  23.2376091  74.3758547
  33.9039482  18.7560656  78.8110724  33.0481079  18.3667506  78.6316363
  34.3166434  18.8352616  77.9510510  35.4338629  16.2906999  83.2102284
  34.9303425  16.2537134  82.3970089  35.7269236  17.1999742  83.2698941
  31.6781515  16.3745729  82.2168466  32.5434512  16.1788537  81.8574355
  31.7459024  16.1456080  83.1437823  41.2926646  26.6643309  75.6878659
  40.5156088  26.3254469  75.2433821  41.9718127  26.6695933  75.0133624
  36.1078675  21.7838047  75.5785267  35.8028810  22.0984196  76.4295410
  37.0609117  21.8619467  75.6212600  34.5525106  27.9428270  77.2278221
  34.0246468  27.2081030  76.9151459  34.0512609  28.7202947  76.9818189
  39.5317952  26.1377291  82.3445267  38.8741627  26.8276552  82.4325396
  40.3358352  26.5273723  82.6879254  29.2843834  18.6047936  79.5884833
  29.8587586  18.3823118  78.8558026  29.8714816  18.6736631  80.3413434
  38.3423411  24.4921663  80.3949209  38.8555293  25.1251655  80.8970919
  38.9924635  23.8922859  80.0292569  29.6113421  20.6352398  73.6080718
  28.7750733  20.9727084  73.9289993  29.4718191  20.5001377  72.6707855
  31.5866502  15.4789185  78.3159902  30.9330914  15.1638203  77.6916517
  31.5446976  14.8564926  79.0419725  32.6977707  25.7608480  70.2313194
  31.7904768  25.5297734  70.4304343  33.1948739  24.9646100  70.4187176
  35.6045786  34.4705988  73.1509880  34.9307484  34.7737684  73.7594838
  35.9911607  35.2735068  72.8015337  34.8204242  21.9671119  82.6407550
  33.9026804  22.1886066  82.4829238  35.2364386  22.0417429  81.7819257
  35.6039290  23.3662535  77.7710230  36.3511109  23.8783932  77.4617352
  35.8730879  23.0446587  78.6314623  33.8765940  25.8621075  74.7537184
  32.9677159  25.5780108  74.8509654  33.9061024  26.2820154  73.8940491
  39.1085207  29.4727665  78.5228352  38.6547535  28.6318575  78.5793542
  38.4779174  30.1089063  78.8603132  38.0518127  20.4019651  79.7529019
  37.3140884  19.8897037  80.0839262  38.3044901  19.9620032  78.9412296
  37.5518147  31.3104162  79.4578170  37.8441121  31.8709219  78.7390536
  38.0616767  31.6032723  80.2131329  38.1529754  13.1795903  80.3470788
  38.4588631  12.3193266  80.0596704  38.8782359  13.7713523  80.1469782
  24.4454110  23.5826589  78.7352386  24.2478510  22.9895950  78.0103453
  23.8900774  23.2778800  79.4528325  32.4250834  23.4749696  80.8546980
  32.4799444  22.5223532  80.7789456  31.6142036  23.6309135  81.3388278
  33.5742028  27.4029819  72.0925263  33.1361458  26.6865678  71.6330900
  34.3152469  27.6305934  71.5310354  30.3643194  22.0926756  78.6137358
  29.5511060  22.3920926  79.0202551  30.8602188  21.6982444  79.3311841
  32.5151772  32.0884513  80.5471623  32.4727951  32.3145359  79.6180155
  33.4314471  31.8547887  80.6957424  35.9617406  22.5568580  87.4452252
  36.3166793  22.7840053  88.3046718  36.6089537  22.8886957  86.8229508
  41.6915143  25.6787016  78.1501581  41.5533041  25.8688612  77.2222771
  41.3351361  26.4406399  78.6069632  29.8557269  19.6645111  84.2298593
  30.4956648  19.5233870  83.5321557  29.0234799  19.3779625  83.8537195
  41.7184522  27.7463543  83.1612853  42.1521029  27.6538832  84.0095907
  42.4316103  27.7221044  82.5232869  30.6317573  28.9647542  80.3433586
  31.4258171  28.4697862  80.1416161  29.9209265  28.4365405  79.9801291
  35.4512417  31.3465637  84.6945953  35.5049439  31.9156573  85.4623669
  34.5827199  31.5167522  84.3299991  26.9400336  23.1090623  76.4193339
  26.0097924  23.0475079  76.6363301  27.0357808  22.5866576  75.6229980
  26.8585885  19.6345436  79.0071580  27.1192703  20.5490769  78.8980741
  27.6803058  19.1669879  79.1568193  28.3310811  21.0483193  86.1770405
  29.0033864  20.8400555  85.5283054  27.5040597  20.8505279  85.7375637
  42.5800072  27.7887244  85.6945738  42.7735962  28.6933054  85.9405013
  42.4800690  27.3294663  86.5284323  34.2336383  17.6745134  88.1936066
  33.5864298  18.3735084  88.1000542  35.0037398  18.1081278  88.5612314
  37.6415180  27.9393986  91.2686619  37.4900687  27.7104538  90.3516703
  37.6319860  28.8964588  91.2817964  34.4100517  25.5125899  86.2532885
  35.3392577  25.6637059  86.0801853  33.9891547  25.6009920  85.3981532
  33.2088849  29.5376564  84.0231423  33.0699934  29.1695348  84.8957361
  32.4203445  30.0524203  83.8515381  33.8037001  34.6385660  75.3656959
  33.9788756  34.1673703  76.1802582  33.1169789  35.2651426  75.5938220
  34.7594064  28.9158166  81.4120261  34.4243896  28.8758936  82.3077911
  34.2598010  28.2502882  80.9390671  28.7338308  24.3225796  86.9372842
  28.5958106  23.5906035  87.5384381  29.6443231  24.2334696  86.6557030
  37.6953255  26.2614201  71.6857320  37.0782426  25.5361029  71.5890373
  37.2269744  27.0223561  71.3424395  31.3620608  24.0345756  86.4256522
  32.0720227  23.3938948  86.3843140  31.3189917  24.2858651  87.3482702
  39.3507387  30.9713109  89.3463101  39.2919933  30.2872329  88.6793684
  39.7526906  31.7132099  88.8943727  30.0749542  21.0210974  88.2452161
  29.5386899  20.5701712  88.8973757  29.4866251  21.1556882  87.5022625
  28.3698086  37.7875023  82.1396820  28.6094684  38.4193547  82.8175838
  27.5267282  37.4363063  82.4262179  29.4851801  20.4799625  70.8078625
  28.6081268  20.3588426  70.4440871  29.9609554  19.6885703  70.5557513
  39.3524794  28.9352693  87.5777080  38.4651573  28.5978615  87.7003479
  39.9223345  28.2035724  87.8145846  21.0053942  25.2676785  80.9020132
  21.6924981  24.9538515  80.3141147  20.8502070  26.1718149  80.6287383
  25.8088664  20.1566981  85.3305156  25.7246852  19.5492651  84.5955565
  24.9871370  20.6476000  85.3314652  32.8825948  33.5954145  84.5438324
  32.8096119  34.4009117  85.0557628  32.4403341  33.7946111  83.7186345
  32.6715727  32.8325915  78.0541145  31.8883249  33.3747595  78.1479370
  33.3708473  33.3499895  78.4535386  35.9812378  18.6420545  80.6975351
  36.4781077  17.8890507  80.3776421  35.2099359  18.6784861  80.1318560
  43.8342135  24.3460910  82.3393642  43.8232011  25.2285626  81.9687575
  42.9659514  23.9932461  82.1448179  35.3424631  33.4940979  86.6996482
  36.0552604  34.1288444  86.6272384  34.8514660  33.5904845  85.8836484
  37.0642158  27.3992232  78.2713774  36.1298437  27.5193694  78.1018478
  37.2418827  26.4964699  78.0073784  32.5647346  20.7837928  80.4247035
  32.1945134  20.2308968  81.1127941  33.0606439  20.1796061  79.8722035
  40.4514710  23.2409551  78.8063808  40.9175162  24.0737543  78.7324111
  40.9022210  22.7754533  79.5109067  30.3936545  31.2435423  87.5202053
  31.0946004  31.8771906  87.6731447  29.9231660  31.5850154  86.7597692
  38.5190941  29.5853373  75.8049960  38.7950785  29.4709967  76.7143834
  37.6495439  29.1870857  75.7662133  38.4231372  15.6090138  82.8454709
  37.5094452  15.8394365  83.0136916  38.8524474  15.6928582  83.6968742
  38.1937831  23.7980030  85.3454603  37.5409281  24.0455938  84.6907056
  38.5718211  22.9844168  85.0117081  35.1545005  33.8339723  79.4482774
  35.3367399  33.0161379  79.9110526  35.9777991  34.0507416  79.0107664
  35.4887170  32.7607909  76.7097822  36.0174937  32.2500363  76.0967984
  35.7515390  32.4450439  77.5743355  34.2425404  24.5399841  91.8320641
  33.5666041  24.4393971  92.5023016  35.0653038  24.3839055  92.2956638
  25.9904263  30.7771778  84.4533156  26.5757700  30.0315466  84.5861060
  25.7929101  31.0875735  85.3369820  28.8442918  33.8123025  79.4695598
  28.1753293  34.2969153  78.9859638  28.7055788  34.0592246  80.3838977
  20.5821918  23.3477378  83.1737599  20.6206017  22.8140969  83.9674717
  20.0762210  22.8212584  82.5548576  32.9848187  35.8466769  86.0678257
  33.5366495  36.0098390  86.8327342  33.3254380  36.4371207  85.3958281
  27.9612680  18.1941919  86.6700141  28.0254006  19.0556749  86.2577539
  27.8979800  17.5815920  85.9372500  37.8359061  30.6728026  91.9226911
  38.3798965  31.2857985  91.4281866  37.2545906  31.2307605  92.4393924
  24.2130495  22.0741480  76.2491530  24.5083936  21.1652159  76.1958584
  23.3118531  22.0529220  75.9272533  36.1216574  33.7948744  83.0541939
  35.9967713  32.9938484  82.5452884  36.7795665  34.2894938  82.5655909
  27.7424742  20.1497477  82.2319079  27.0211328  20.7633444  82.0926552
  28.5317998  20.6855242  82.1535725  38.1851482  31.5957764  84.6821489
  37.2381818  31.4763116  84.6099816  38.5334255  30.7080262  84.7647750
  30.5451056  17.4851903  88.5059731  31.0685458  17.7314200  89.2686040
  30.3263389  18.3171938  88.0862868  25.9418337  19.7555578  76.3730855
  25.6131043  18.8752957  76.1905961  26.2957708  19.7003247  77.2607245
  35.1897916  31.3910481  80.8825841  35.0422878  30.4627188  81.0633411
  36.0151409  31.4130571  80.3982916  29.0560160  20.0428548  76.7406333
  29.3956232  20.5714469  76.0184942  29.5032280  20.3808954  77.5164900
  38.7932038  32.2139039  81.9690714  39.7178585  32.0081901  81.8315165
  38.6247341  31.9655440  82.8780055  31.7503601  18.4265598  86.1909401
  31.4100421  17.6273411  86.5930081  31.0442607  18.7267309  85.6186234
  32.4020073  15.5114911  84.6436724  33.2246142  15.0375389  84.5215615
  32.6458136  16.2905395  85.1435411  31.0428307  18.5403169  74.9399626
  31.7636670  18.9184422  74.4363343  30.4193611  19.2592046  75.0434604
  35.1859430  19.2448318  75.8757958  35.4023044  20.1272956  75.5746786
  34.7053497  18.8534532  75.1463600  29.9258651  22.2034031  82.4528703
  29.7803232  22.5174335  83.3452984  29.4483855  22.8218932  81.8999601
  31.7855034  19.1936579  82.5009592  31.7716603  18.2977673  82.1641890
  32.5027462  19.2007243  83.1347878  33.6381165  19.6273920  84.5462720
  33.3798943  20.5490990  84.5447050  33.1066205  19.2304354  85.2363184
  38.5827354  32.7324707  77.3252805  38.7564231  32.1671129  76.5726658
  39.0756245  33.5325602  77.1432295  24.4004314  24.7439376  85.3916364
  23.8557782  25.5199184  85.5236638  25.2783663  25.0910180  85.2335485
  31.1891930  18.0750960  77.7697163  31.3107841  17.1467606  77.9688050
  30.8993973  18.0889646  76.8575478  34.0583121  15.7605870  80.9063882
  34.0804817  15.8245203  79.9515862  34.4751180  14.9210379  81.1004389
  44.4366745  25.4961130  78.9443105  44.8797891  24.7468455  78.5462228
  43.5593255  25.4871266  78.5616837  39.5702526  32.0491471  74.4249703
  40.2653431  32.6698164  74.6437018  39.9125676  31.1986822  74.7002081
  25.1870335  23.8709272  88.2846521  24.4452071  24.0191907  88.8711151
  24.8663080  24.1317538  87.4213270  41.4693949  29.4991177  75.9537034
  41.9945273  29.8378449  75.2286354  41.3816302  28.5638192  75.7700169
  33.1313998  33.4125250  88.0826911  33.4401124  33.1674397  88.9549610
  33.9289480  33.6171889  87.5945781  33.1534610  35.5663160  80.3132287
  32.7139600  35.0739539  81.0065144  33.9042727  35.0236128  80.0724363
  25.6326949  31.7574701  80.3156916  26.4584969  31.4578473  79.9355559
  25.2821001  30.9882323  80.7646704  30.6008482  31.1101169  82.3854589
  29.9788492  30.4471874  82.0856817  31.2713349  31.1362301  81.7028237
  23.8335554  29.6761027  81.2745849  22.9967462  29.2483202  81.0929850
  23.8059200  29.8693471  82.2116640  41.1587855  30.1324080  91.2588232
  40.3683399  30.1148219  90.7192732  40.9221210  30.6712374  92.0137269
  41.2785730  26.9816547  88.5720961  41.3283735  26.8166554  89.5136484
  41.1699654  26.1143806  88.1818842  30.1621989  29.6605092  75.8613050
  30.3110110  30.3440557  75.2079722  30.9688433  29.6410182  76.3762505
  38.5689493  22.9647475  89.8880267  39.4699356  22.8253940  89.5964265
  38.6437467  23.1301930  90.8278445  32.9032298  20.3414329  88.7333454
  32.0335608  20.6347896  88.4616042  33.1391779  20.9254774  89.4540717
  42.7803927  29.4013488  88.8162982  42.4888736  29.7643469  89.6526443
  42.1676059  28.6880496  88.6376314  43.9799610  26.9666368  81.3365553
  44.8146501  27.4056172  81.5003113  44.1158738  26.4905021  80.5173798
  41.0291116  24.5246103  87.2843040  41.5045237  24.7173749  86.4761892
  40.1056681  24.5805289  87.0386424  27.9174622  25.6870270  76.8674119
  27.6720664  24.7832600  77.0654329  28.0870537  25.6887420  75.9253597
  35.6071332  16.5593946  86.2498874  36.1253276  17.2954973  85.9245363
  35.2526465  16.8657940  87.0845633  27.1870270  21.4198628  74.3660280
  26.4939515  21.4942983  73.7100316  26.9422022  20.6558971  74.8881797
  35.8583926  12.9794229  81.7699771  36.1385680  12.3117418  82.3960197
  36.6434533  13.1723325  81.2574435  33.6617395  32.1553223  73.3324797
  33.0891362  32.7743410  72.8795269  34.2350188  32.7052585  73.8664719
  39.7292785  21.4011863  85.5171346  40.6810207  21.5009961  85.5383570
  39.5596235  20.6090131  86.0269430  37.7507164  18.4867446  85.7030747
  37.1557096  18.7672459  85.0077235  37.4656861  18.9761347  86.4747488
  36.8814654  32.4390373  74.4633379  37.8145328  32.3735935  74.6666255
  36.7937867  33.2746640  74.0047912  39.5102671  31.7556243  71.4237327
  39.4316303  31.4216107  72.3173085  40.3312338  32.2478011  71.4228799
  42.2080862  24.6217983  84.6313646  42.1757182  23.6833983  84.8173329
  42.8181486  24.7002019  83.8979470  34.0464193  23.4914036  70.6740850
  34.9923298  23.3620244  70.7429268  33.6678438  22.7528697  71.1510278
  42.3575351  21.4129026  84.6771929  41.8414399  20.6287483  84.4901858
  43.2415299  21.0847743  84.8418448  40.0186078  15.1570042  80.6367741
  39.8210899  14.8485130  81.5211073  40.6285783  15.8831681  80.7665671
  48.0257412  25.6833989  83.7719682  48.7560801  25.4219278  84.3327386
  47.4164358  24.9462711  83.8121750  46.1072709  23.8241852  84.3694134
  45.3805873  23.6897817  83.7610625  45.6919996  24.1318681  85.1750852
  33.9302886  27.5431782  92.1341507  34.8505895  27.7210381  92.3281553
  33.8952469  26.5987827  91.9821206  32.2307110  21.4164012  70.6095735
  31.3238566  21.1197125  70.6858448  32.5083091  21.1193830  69.7430021
  23.1485051  22.7370375  81.0594781  22.8287835  21.8835684  80.7669155
  22.6018479  22.9518954  81.8152749  26.9264958  25.4532816  84.7764288
  27.1450968  26.3849924  84.7952322  27.3390732  25.0940791  85.5619092
  33.8469176  15.9600902  76.7639976  33.0369904  15.6147987  77.1395222
  34.5353593  15.6508445  77.3527588  35.7759724  15.0378949  78.3864273
  36.3290763  15.4574402  79.0454296  36.0129811  14.1114697  78.4287229
  31.0005895  18.2750947  70.7507714  31.8625059  18.6005846  71.0103531
  31.1856239  17.4882443  70.2380780  23.0173311  26.3573287  83.0287903
  22.3236782  25.9427240  82.5157857  23.7646302  26.3993823  82.4321322
  39.1538531  17.1479474  77.8942937  38.5737200  17.8064278  77.5120989
  38.8874464  16.3256818  77.4830354  37.6042098  16.5484531  80.0964257
  38.1041876  16.6601066  79.2878576  38.2477706  16.2445584  80.7365066
  31.6624094  24.4563161  92.9832098  31.1791175  25.2563521  93.1895987
  31.7485033  24.4671106  92.0299542  24.9310053  26.2891541  80.9053918
  24.9080741  26.3879228  79.9535801  25.2410690  27.1356691  81.2271084
  27.5897431  28.3467696  85.0200532  28.5440685  28.3151638  84.9530464
  27.3909955  27.8858319  85.8350758  28.1796813  26.9168812  87.5871330
  28.9989702  27.4112890  87.6106167  28.4533621  26.0000780  87.5588897
  37.9363409  19.3079564  76.9499285  37.0489264  19.5929215  76.7319480
  38.3517399  19.1473327  76.1026562  41.2877946  19.3326085  80.6653624
  42.0638336  19.8222537  80.9378241  40.5626080  19.7584139  81.1225494
  43.7250504  20.0453704  81.7227565  44.3194995  19.8049440  81.0120873
  43.7977088  19.3260835  82.3501101  25.9447660  33.8887315  82.0370730
  25.8102128  33.1287716  81.4708728  25.5279722  34.6128215  81.5699519
  37.0806623  29.0724239  71.0447305  37.7842473  29.2774241  71.6604961
  36.3569272  29.6401001  71.3096389  37.9104433  24.8234100  77.1649575
  37.8539635  25.2802651  76.3257208  38.4632776  24.0624785  76.9872418
  41.7209239  20.6123832  77.9899695  41.4646173  20.2120468  78.8207903
  41.0962107  21.3267626  77.8649834  46.0321577  23.3519905  80.4970986
  45.4721135  23.4213094  81.2702548  45.4265080  23.1760890  79.7770483
  29.1016786  34.7856632  82.2489173  28.9849170  35.7302065  82.1467863
  28.2809232  34.4830194  82.6374972  38.9893320  29.5106768  73.0945765
  39.8238924  29.0787966  72.9123240  38.8277663  29.3388782  74.0222660
  38.6439213  26.0138881  74.4602105  38.5888016  25.8483153  73.5190549
  38.0185268  26.7214914  74.6164294  23.4331727  21.2506946  88.2863527
  24.0790591  20.7405900  88.7750752  23.2248879  21.9875627  88.8606952
  35.9585120  28.3187793  93.7855667  36.8276279  28.4928445  93.4242302
  35.4791871  29.1382210  93.6631397  31.9535338  15.5146990  74.0387423
  31.9414008  16.4588830  74.1955694  32.8458760  15.3317136  73.7446884
  30.1271300  35.4384894  85.4645101  31.0298547  35.4708504  85.7811596
  29.9008670  34.5085345  85.4791437  31.8824902  34.1915881  82.1255180
  30.9320533  34.1917742  82.0119552  32.1857388  33.4448615  81.6091214
  35.7687457  12.1089767  78.2933360  35.0019853  11.5548254  78.4390042
  36.1798162  12.1811636  79.1547511  47.6177595  40.0276419  83.1900942
  48.2556005  39.9083166  82.4864282  47.4998438  40.9757263  83.2488894
  44.4267302  39.9803847  83.1262467  44.0885813  39.8644912  82.2383002
  45.2957070  39.5795012  83.1063473  40.2854117  41.8339324  79.1159358
  39.7218983  41.7429260  78.3475645  40.1706512  41.0139228  79.5961850
  44.9087085  41.1338699  89.0848672  44.8975725  40.7391497  88.2129176
  45.0707724  40.4004771  89.6782444  37.8318549  43.3290515  81.9543578
  38.6239841  42.9881340  81.5389877  38.0715199  43.4385490  82.8745731
  45.8653676  45.5010291  74.4273823  45.2141656  46.0864372  74.0407836
  46.6598039  46.0316486  74.4868860  39.7909303  42.5899428  74.8260957
  40.5640179  42.0428415  74.6873833  40.1434702  43.4543678  75.0375418
  41.6294346  43.9175811  88.0327856  41.3384212  44.8221442  87.9174523
  42.2651330  43.9592338  88.7471926  42.5550553  41.2952659  84.6229216
  43.1514125  41.0708682  83.9086179  42.6125524  40.5537405  85.2254664
  42.1275581  38.7492095  72.4579407  42.3801102  38.2273616  71.6962870
  41.1900140  38.5858240  72.5606090  47.1718864  37.7527873  80.2654150
  47.9581953  37.3347296  79.9144567  47.4357568  38.6573965  80.4335798
  47.3428941  43.1900723  74.9642807  46.7074774  43.2635350  75.6763712
  47.0126348  43.7794322  74.2861886  52.5727291  37.6903106  81.1687129
  53.3052463  37.1202323  81.4024958  51.8166647  37.3024707  81.6093634
  41.8471870  40.6520200  74.6603782  41.7308128  39.9765104  75.3284866
  41.9574130  40.1652574  73.8435935  44.1903411  40.1130348  78.3650471
  43.8261618  39.5860969  79.0763393  45.0470527  39.7228817  78.1916956
  50.0952711  31.4024680  85.6281737  49.7636036  32.2720091  85.4042952
  49.4998325  31.0860964  86.3075768  43.8308898  35.1420247  73.3611820
  43.9983300  36.0100484  73.7282291  43.6406067  35.3047529  72.4373109
  46.5884231  43.6037226  85.0277650  46.2884954  44.5062265  84.9193457
  46.2435290  43.3369409  85.8798803  40.0396712  40.0551023  81.0614354
  39.1147209  39.9227237  81.2692046  40.2881126  40.8345242  81.5584297
  49.9881375  36.1219766  82.7075087  49.0798252  36.0535175  82.4133848
  49.9368970  36.5991711  83.5356913  43.8098119  37.5977905  74.3458486
  43.6897744  38.0434956  75.1843967  43.1150707  37.9463222  73.7872025
  37.4005523  39.6984297  81.8958143  37.5297905  39.9518775  82.8097555
  36.7202975  40.2912005  81.5762798  41.5705011  50.3681547  77.9948618
  41.4929040  51.3189372  78.0737098  40.9666654  50.0227419  78.6523544
  44.0622240  37.5409412  90.6509985  43.2855575  38.1003332  90.6412849
  44.7012804  38.0266195  91.1724855  51.8543021  34.3236205  84.4852961
  51.2117401  34.6168738  83.8392756  51.3497950  34.2089125  85.2906158
  49.5083185  38.0699378  75.1738820  50.4201041  38.3026765  74.9986518
  48.9992832  38.6536422  74.6113899  42.3168613  40.3494865  90.2127952
  43.0583297  40.8879909  89.9362775  41.6105598  40.9761154  90.3699503
  47.7923952  42.4924006  88.8100113  48.2007308  42.0506416  88.0654745
  47.0701214  41.9176633  89.0634306  44.1455022  37.4296613  86.1833670
  44.9916218  37.8536026  86.3268319  44.0853660  36.7730237  86.8772233
  48.1152767  43.0525196  82.5652402  47.4861630  43.2170911  81.8628470
  47.7278429  43.4666806  83.3363366  51.9941999  43.9879634  79.9196766
  51.3093037  44.3678536  79.3693799  52.0785848  44.5974961  80.6528713
  47.2954468  35.0900981  87.8414844  47.0515400  35.8443041  87.3049119
  47.5714398  35.4686329  88.6762091  49.2492931  41.6339593  86.5192109
  49.4609826  42.2771353  85.8426490  49.2022679  40.8001910  86.0514039
  46.8519160  34.2457414  83.4228681  45.9903639  34.5438667  83.7145419
  46.8781594  34.4627813  82.4909714  43.6680729  42.7899604  79.8302487
  44.1319074  43.0687307  79.0407109  43.4037527  41.8883049  79.6475578
  40.5604810  42.3371086  82.7682250  41.1306167  42.7658354  82.1299735
  41.1512922  42.0553671  83.4666436  42.6049615  38.9122757  76.6392052
  43.3073658  39.3643801  77.1065978  42.2730244  38.2706576  77.2671945
  41.0529977  37.5034513  91.0143262  40.4228637  38.1850794  91.2478658
  40.9466064  37.3917595  90.0696400  36.3474949  37.1706310  81.9409186
  35.5574003  37.4263838  81.4649296  36.8386196  37.9854647  82.0461226
  50.3638759  44.5111549  84.6914467  51.1856202  44.1091736  84.4097148
  50.3601161  44.4079783  85.6430582  38.2989694  37.5350889  78.8992662
  37.5020858  37.6469583  79.4176158  38.0715287  37.8737541  78.0333553
  44.1295362  44.0595592  86.8475177  44.1939794  44.5215999  87.6833349
  43.4206286  43.4292957  86.9757487  34.6312652  37.4236800  84.3724176
  34.8820690  38.3083810  84.6381752  35.1672200  37.2441401  83.5999268
  58.4544752  40.8550297  81.0399438  57.7008460  40.2857695  80.8843442
  58.5892293  40.8212962  81.9870073  43.8443380  45.7263699  76.7154157
  43.7089054  46.5715235  77.1439005  44.3853192  45.9282977  75.9520091
  40.3310719  31.8055279  93.3768513  39.9377665  31.2521478  94.0516157
  41.1476860  32.1165858  93.7675030  37.2972777  43.2439138  77.2882082
  37.8097298  44.0382388  77.4387647  37.9495490  42.5465428  77.2215684
  39.1067662  46.3604894  79.3704836  39.2834290  47.2822858  79.1825820
  39.9024495  46.0463313  79.7999215  43.2478680  33.2213158  90.9688769
  43.9888394  33.8220312  90.8893232  43.4796603  32.4790796  90.4106812
  38.3920018  38.4069526  89.2466999  38.2773533  37.5054783  89.5474098
  37.5364536  38.6533222  88.8951815  45.4711856  46.3487266  90.8454499
  45.0275710  45.5623645  90.5275404  46.1329070  46.5366416  90.1798390
  40.2298977  47.8783068  85.3715178  40.7806402  47.7500131  84.5992172
  39.3910453  48.1777957  85.0210071  47.5693094  46.6290066  88.8735901
  47.5511569  47.4498947  88.3816170  48.4913014  46.5044141  89.0986042
  44.0266148  44.1434195  89.7159409  44.5594485  43.3822484  89.4858717
  43.4980229  43.8507847  90.4583564  47.1935843  29.2494261  85.2453051
  46.8500113  30.1395903  85.1692161  47.5614806  29.0595919  84.3822636
  35.2621694  41.5727792  78.0641653  36.0996916  41.9824800  77.8475361
  35.4399962  40.6327234  78.0341847  47.1586126  39.2402872  73.7525486
  46.6432749  40.0107477  73.9913873  46.8863434  38.5668009  74.3758547
  44.7433237  34.0852573  78.8110724  43.8874833  33.6959424  78.6316363
  45.1560189  34.1644534  77.9510510  46.2732384  31.6198917  83.2102284
  45.7697179  31.5829052  82.3970089  46.5662990  32.5291659  83.2698941
  42.5175269  31.7037646  82.2168466  43.3828266  31.5080455  81.8574355
  42.5852778  31.4747998  83.1437823  52.1320400  41.9935227  75.6878659
  51.3549843  41.6546387  75.2433821  52.8111881  41.9987850  75.0133624
  46.9472429  37.1129965  75.5785267  46.6422565  37.4276114  76.4295410
  47.9002871  37.1911384  75.6212600  45.3918861  43.2720188  77.2278221
  44.8640223  42.5372947  76.9151459  44.8906364  44.0494864  76.9818189
  50.3711707  41.4669208  82.3445267  49.7135381  42.1568470  82.4325396
  51.1752106  41.8565640  82.6879254  40.1237589  33.9339854  79.5884833
  40.6981340  33.7115036  78.8558026  40.7108571  34.0028549  80.3413434
  49.1817166  39.8213581  80.3949209  49.6949048  40.4543573  80.8970919
  49.8318390  39.2214777  80.0292569  40.4507176  35.9644315  73.6080718
  39.6144488  36.3019002  73.9289993  40.3111945  35.8293295  72.6707855
  42.4260256  30.8081103  78.3159902  41.7724669  30.4930120  77.6916517
  42.3840730  30.1856844  79.0419725  43.5371461  41.0900398  70.2313194
  42.6298523  40.8589652  70.4304343  44.0342493  40.2938017  70.4187176
  46.4439540  49.7997905  73.1509880  45.7701239  50.1029602  73.7594838
  46.8305362  50.6026986  72.8015337  45.6597997  37.2963037  82.6407550
  44.7420558  37.5177984  82.4829238  46.0758140  37.3709347  81.7819257
  46.4433044  38.6954452  77.7710230  47.1904863  39.2075849  77.4617352
  46.7124634  38.3738505  78.6314623  44.7159695  41.1912993  74.7537184
  43.8070914  40.9072026  74.8509654  44.7454778  41.6112072  73.8940491
  49.9478962  44.8019583  78.5228352  49.4941289  43.9610492  78.5793542
  49.3172929  45.4380981  78.8603132  48.8911882  35.7311569  79.7529019
  48.1534638  35.2188955  80.0839262  49.1438655  35.2911950  78.9412296
  48.3911901  46.6396079  79.4578170  48.6834876  47.2001136  78.7390536
  48.9010522  46.9324640  80.2131329  48.9923509  28.5087821  80.3470788
  49.2982386  27.6485184  80.0596704  49.7176114  29.1005441  80.1469782
  35.2847865  38.9118507  78.7352386  35.0872265  38.3187868  78.0103453
  34.7294529  38.6070717  79.4528325  43.2644589  38.8041614  80.8546980
  43.3193198  37.8515450  80.7789456  42.4535791  38.9601053  81.3388278
  44.4135782  42.7321737  72.0925263  43.9755212  42.0157596  71.6330900
  45.1546223  42.9597851  71.5310354  41.2036949  37.4218673  78.6137358
  40.3904814  37.7212844  79.0202551  41.6995943  37.0274362  79.3311841
  43.3545526  47.4176430  80.5471623  43.3121705  47.6437277  79.6180155
  44.2708225  47.1839805  80.6957424  46.8011160  37.8860498  87.4452252
  47.1560548  38.1131971  88.3046718  47.4483291  38.2178875  86.8229508
  52.5308897  41.0078934  78.1501581  52.3926796  41.1980530  77.2222771
  52.1745116  41.7698317  78.6069632  40.6951023  34.9937029  84.2298593
  41.3350403  34.8525788  83.5321557  39.8628554  34.7071542  83.8537195
  52.5578277  43.0755461  83.1612853  52.9914783  42.9830750  84.0095907
  53.2709857  43.0512961  82.5232869  41.4711327  44.2939459  80.3433586
  42.2651926  43.7989779  80.1416161  40.7603020  43.7657322  79.9801291
  46.2906172  46.6757555  84.6945953  46.3443194  47.2448491  85.4623669
  45.4220953  46.8459440  84.3299991  37.7794091  38.4382541  76.4193339
  36.8491679  38.3766997  76.6363301  37.8751563  37.9158494  75.6229980
  37.6979640  34.9637354  79.0071580  37.9586457  35.8782687  78.8980741
  38.5196812  34.4961796  79.1568193  39.1704565  36.3775111  86.1770405
  39.8427618  36.1692473  85.5283054  38.3434352  36.1797197  85.7375637
  53.4193826  43.1179161  85.6945738  53.6129716  44.0224972  85.9405013
  53.3194444  42.6586580  86.5284323  45.0730137  33.0037052  88.1936066
  44.4258052  33.7027002  88.1000542  45.8431152  33.4373196  88.5612314
  48.4808935  43.2685904  91.2686619  48.3294441  43.0396456  90.3516703
  48.4713614  44.2256506  91.2817964  45.2494271  40.8417817  86.2532885
  46.1786331  40.9928976  86.0801853  44.8285301  40.9301838  85.3981532
  44.0482603  44.8668481  84.0231423  43.9093689  44.4987266  84.8957361
  43.2597199  45.3816121  83.8515381  44.6430755  49.9677578  75.3656959
  44.8182511  49.4965621  76.1802582  43.9563543  50.5943344  75.5938220
  45.5987818  44.2450084  81.4120261  45.2637651  44.2050854  82.3077911
  45.0991764  43.5794800  80.9390671  39.5732062  39.6517714  86.9372842
  39.4351860  38.9197953  87.5384381  40.4836986  39.5626614  86.6557030
  48.5347010  41.5906118  71.6857320  47.9176181  40.8652946  71.5890373
  48.0663498  42.3515479  71.3424395  42.2014363  39.3637673  86.4256522
  42.9113981  38.7230866  86.3843140  42.1583671  39.6150568  87.3482702
  50.1901142  46.3005027  89.3463101  50.1313688  45.6164247  88.6793684
  50.5920660  47.0424017  88.8943727  40.9143297  36.3502891  88.2452161
  40.3780654  35.8993630  88.8973757  40.3260005  36.4848800  87.5022625
  39.2091840  53.1166941  82.1396820  39.4488439  53.7485465  82.8175838
  38.3661037  52.7654981  82.4262179  40.3245556  35.8091543  70.8078625
  39.4475022  35.6880343  70.4440871  40.8003309  35.0177621  70.5557513
  50.1918549  44.2644611  87.5777080  49.3045328  43.9270532  87.7003479
  50.7617100  43.5327642  87.8145846  31.8447696  40.5968702  80.9020132
  32.5318736  40.2830432  80.3141147  31.6895825  41.5010067  80.6287383
  36.6482418  35.4858899  85.3305156  36.5640607  34.8784568  84.5955565
  35.8265125  35.9767917  85.3314652  43.7219702  48.9246063  84.5438324
  43.6489874  49.7301034  85.0557628  43.2797095  49.1238029  83.7186345
  43.5109482  48.1617833  78.0541145  42.7277004  48.7039513  78.1479370
  44.2102227  48.6791813  78.4535386  46.8206132  33.9712462  80.6975351
  47.3174832  33.2182425  80.3776421  46.0493114  34.0076779  80.1318560
  54.6735889  39.6752828  82.3393642  54.6625766  40.5577543  81.9687575
  53.8053269  39.3224379  82.1448179  46.1818386  48.8232897  86.6996482
  46.8946358  49.4580362  86.6272384  45.6908414  48.9196763  85.8836484
  47.9035913  42.7284150  78.2713774  46.9692191  42.8485612  78.1018478
  48.0812581  41.8256616  78.0073784  43.4041101  36.1129845  80.4247035
  43.0338888  35.5600886  81.1127941  43.9000193  35.5087979  79.8722035
  51.2908464  38.5701469  78.8063808  51.7568916  39.4029461  78.7324111
  51.7415965  38.1046451  79.5109067  41.2330299  46.5727340  87.5202053
  41.9339759  47.2063823  87.6731447  40.7625414  46.9142072  86.7597692
  49.3584695  44.9145290  75.8049960  49.6344539  44.8001885  76.7143834
  48.4889194  44.5162775  75.7662133  49.2625127  30.9382056  82.8454709
  48.3488207  31.1686283  83.0136916  49.6918228  31.0220500  83.6968742
  49.0331585  39.1271948  85.3454603  48.3803036  39.3747855  84.6907056
  49.4111965  38.3136086  85.0117081  45.9938759  49.1631641  79.4482774
  46.1761154  48.3453297  79.9110526  46.8171745  49.3799333  79.0107664
  46.3280925  48.0899826  76.7097822  46.8568691  47.5792281  76.0967984
  46.5909144  47.7742356  77.5743355  45.0819158  39.8691759  91.8320641
  44.4059795  39.7685888  92.5023016  45.9046792  39.7130973  92.2956638
  36.8298017  46.1063695  84.4533156  37.4151454  45.3607383  84.5861060
  36.6322856  46.4167652  85.3369820  39.6836673  49.1414943  79.4695598
  39.0147048  49.6261071  78.9859638  39.5449542  49.3884163  80.3838977
  31.4215672  38.6769296  83.1737599  31.4599772  38.1432886  83.9674717
  30.9155965  38.1504501  82.5548576  43.8241941  51.1758686  86.0678257
  44.3760249  51.3390308  86.8327342  44.1648135  51.7663124  85.3958281
  38.8006434  33.5233836  86.6700141  38.8647761  34.3848667  86.2577539
  38.7373555  32.9107838  85.9372500  38.2758707  35.5956969  90.3173175
  38.9030746  35.2134046  90.9310700  37.4186626  35.3771171  90.6828868
  48.6752816  46.0019944  91.9226911  49.2192720  46.6149902  91.4281866
  48.0939660  46.5599522  92.4393924  35.0524250  37.4033398  76.2491530
  35.3477691  36.4944076  76.1958584  34.1512285  37.3821137  75.9272533
  46.9610328  49.1240662  83.0541939  46.8361468  48.3230402  82.5452884
  47.6189420  49.6186855  82.5655909  38.5818497  35.4789394  82.2319079
  37.8605082  36.0925362  82.0926552  39.3711752  36.0147159  82.1535725
  49.0245237  46.9249682  84.6821489  48.0775572  46.8055033  84.6099816
  49.3728010  46.0372180  84.7647750  41.3844810  32.8143821  88.5059731
  41.9079212  33.0606117  89.2686040  41.1657144  33.6463856  88.0862868
  36.7812091  35.0847496  76.3730855  36.4524797  34.2044874  76.1905961
  37.1351462  35.0295164  77.2607245  46.0291670  46.7202398  80.8825841
  45.8816633  45.7919106  81.0633411  46.8545164  46.7422489  80.3982916
  39.8953914  35.3720465  76.7406333  40.2349987  35.9006387  76.0184942
  40.3426035  35.7100871  77.5164900  49.6325792  47.5430957  81.9690714
  50.5572339  47.3373818  81.8315165  49.4641095  47.2947358  82.8780055
  42.5897355  33.7557516  86.1909401  42.2494176  32.9565329  86.5930081
  41.8836362  34.0559227  85.6186234  43.2413827  30.8406828  84.6436724
  44.0639896  30.3667307  84.5215615  43.4851891  31.6197312  85.1435411
  41.8822062  33.8695087  74.9399626  42.6030424  34.2476340  74.4363343
  41.2587366  34.5883964  75.0434604  46.0253184  34.5740236  75.8757958
  46.2416799  35.4564874  75.5746786  45.5447252  34.1826449  75.1463600
  40.7652406  37.5325949  82.4528703  40.6196987  37.8466252  83.3452984
  40.2877610  38.1510849  81.8999601  42.6248789  34.5228497  82.5009592
  42.6110358  33.6269590  82.1641890  43.3421217  34.5299161  83.1347878
  44.4774919  34.9565837  84.5462720  44.2192697  35.8782908  84.5447050
  43.9459960  34.5596272  85.2363184  49.4221108  48.0616624  77.3252805
  49.5957986  47.4963047  76.5726658  49.9149999  48.8617519  77.1432295
  35.2398068  40.0731293  85.3916364  34.6951536  40.8491101  85.5236638
  36.1177418  40.4202098  85.2335485  42.0285685  33.4042877  77.7697163
  42.1501596  32.4759524  77.9688050  41.7387727  33.4181563  76.8575478
  44.8976875  31.0897788  80.9063882  44.9198572  31.1537121  79.9515862
  45.3144934  30.2502296  81.1004389  55.2760499  40.8253047  78.9443105
  55.7191645  40.0760373  78.5462228  54.3987010  40.8163184  78.5616837
  50.4096281  47.3783389  74.4249703  51.1047185  47.9990082  74.6437018
  50.7519431  46.5278740  74.7002081  36.0264090  39.2001190  88.2846521
  35.2845826  39.3483825  88.8711151  35.7056834  39.4609455  87.4213270
  52.3087704  44.8283094  75.9537034  52.8339028  45.1670367  75.2286354
  52.2210056  43.8930110  75.7700169  43.9707753  48.7417168  88.0826911
  44.2794879  48.4966315  88.9549610  44.7683235  48.9463806  87.5945781
  43.9928365  50.8955078  80.3132287  43.5533355  50.4031456  81.0065144
  44.7436482  50.3528045  80.0724363  36.4720704  47.0866618  80.3156916
  37.2978723  46.7870390  79.9355559  36.1214756  46.3174241  80.7646704
  41.4402237  46.4393087  82.3854589  40.8182246  45.7763792  82.0856817
  42.1107104  46.4654219  81.7028237  34.6729309  45.0052945  81.2745849
  33.8361217  44.5775119  81.0929850  34.6452954  45.1985388  82.2116640
  41.5126764  34.9174875  91.9787095  41.5614920  35.7936998  91.5964865
  42.0549278  34.3752268  91.4058738  51.9981610  45.4615998  91.2588232
  51.2077154  45.4440137  90.7192732  51.7614964  46.0004292  92.0137269
  52.1179485  42.3108464  88.5720961  52.1677490  42.1458472  89.5136484
  52.0093408  41.4435723  88.1818842  41.0015744  44.9897010  75.8613050
  41.1503864  45.6732474  75.2079722  41.8082187  44.9702100  76.3762505
  49.4083247  38.2939392  89.8880267  50.3093110  38.1545857  89.5964265
  49.4831222  38.4593847  90.8278445  43.7426053  35.6706247  88.7333454
  42.8729362  35.9639813  88.4616042  43.9785533  36.2546692  89.4540717
  53.6197682  44.7305406  88.8162982  53.3282490  45.0935386  89.6526443
  53.0069813  44.0172414  88.6376314  54.8193364  42.2958286  81.3365553
  55.6540255  42.7348090  81.5003113  54.9552493  41.8196939  80.5173798
  51.8684870  39.8538021  87.2843040  52.3438992  40.0465667  86.4761892
  50.9450435  39.9097206  87.0386424  38.7568377  41.0162188  76.8674119
  38.5114419  40.1124518  77.0654329  38.9264291  41.0179338  75.9253597
  46.4465087  31.8885864  86.2498874  46.9647030  32.6246891  85.9245363
  46.0920219  32.1949857  87.0845633  38.0264024  36.7490545  74.3660280
  37.3333269  36.8234900  73.7100316  37.7815776  35.9850889  74.8881797
  46.6977681  28.3086147  81.7699771  46.9779434  27.6409336  82.3960197
  47.4828288  28.5015242  81.2574435  44.5011149  47.4845140  73.3324797
  43.9285116  48.1035328  72.8795269  45.0743943  48.0344502  73.8664719
  50.5686539  36.7303781  85.5171346  51.5203962  36.8301878  85.5383570
  50.3989989  35.9382049  86.0269430  48.5900918  33.8159364  85.7030747
  47.9950851  34.0964377  85.0077235  48.3050615  34.3053265  86.4747488
  47.7208409  47.7682291  74.4633379  48.6539082  47.7027852  74.6666255
  47.6331622  48.6038557  74.0047912  50.3496426  47.0848161  71.4237327
  50.2710057  46.7508025  72.3173085  51.1706092  47.5769929  71.4228799
  53.0474617  39.9509900  84.6313646  53.0150937  39.0125901  84.8173329
  53.6575240  40.0293937  83.8979470  44.8857948  38.8205953  70.6740850
  45.8317052  38.6912161  70.7429268  44.5072193  38.0820615  71.1510278
  53.1969105  36.7420944  84.6771929  52.6808154  35.9579400  84.4901858
  54.0809054  36.4139660  84.8418448  50.8579832  30.4861959  80.6367741
  50.6604653  30.1777047  81.5211073  51.4679538  31.2123598  80.7665671
  58.8651167  41.0125907  83.7719682  59.5954555  40.7511195  84.3327386
  58.2558112  40.2754629  83.8121750  56.9466464  39.1533770  84.3694134
  56.2199627  39.0189735  83.7610625  56.5313751  39.4610598  85.1750852
  44.7696640  42.8723699  92.1341507  45.6899650  43.0502298  92.3281553
  44.7346223  41.9279745  91.9821206  43.0700865  36.7455930  70.6095735
  42.1632320  36.4489042  70.6858448  43.3476846  36.4485748  69.7430021
  33.9878805  38.0662293  81.0594781  33.6681590  37.2127601  80.7669155
  33.4412233  38.2810871  81.8152749  37.7658713  40.7824734  84.7764288
  37.9844723  41.7141842  84.7952322  38.1784487  40.4232708  85.5619092
  44.6862931  31.2892819  76.7639976  43.8763659  30.9439904  77.1395222
  45.3747347  30.9800363  77.3527588  46.6153479  30.3670866  78.3864273
  47.1684517  30.7866320  79.0454296  46.8523565  29.4406614  78.4287229
  42.6386578  36.3557940  94.1667037  42.5383305  37.3052297  94.0979128
  42.4208120  36.0276179  93.2943107  41.8399649  33.6042865  70.7507714
  42.7018813  33.9297763  71.0103531  42.0249994  32.8174361  70.2380780
  33.8567065  41.6865205  83.0287903  33.1630537  41.2719157  82.5157857
  34.6040056  41.7285741  82.4321322  49.9932286  32.4771391  77.8942937
  49.4130955  33.1356195  77.5120989  49.7268219  31.6548736  77.4830354
  48.4435852  31.8776449  80.0964257  48.9435631  31.9892984  79.2878576
  49.0871460  31.5737502  80.7365066  42.5017848  39.7855079  92.9832098
  42.0184930  40.5855439  93.1895987  42.5878787  39.7963024  92.0299542
  35.7703808  41.6183458  80.9053918  35.7474496  41.7171146  79.9535801
  36.0804444  42.4648609  81.2271084  38.4291186  43.6759613  85.0200532
  39.3834439  43.6443556  84.9530464  38.2303709  43.2150237  85.8350758
  39.0190568  42.2460729  87.5871330  39.8383457  42.7404808  87.6106167
  39.2927375  41.3292698  87.5588897  48.7757164  34.6371482  76.9499285
  47.8883019  34.9221132  76.7319480  49.1911153  34.4765245  76.1026562
  52.1271700  34.6618003  80.6653624  52.9032090  35.1514455  80.9378241
  51.4019834  35.0876057  81.1225494  54.5644259  35.3745622  81.7227565
  55.1588750  35.1341358  81.0120873  54.6370842  34.6552752  82.3501101
  36.7841414  49.2179233  82.0370730  36.6495882  48.4579634  81.4708728
  36.3673477  49.9420133  81.5699519  47.9200377  44.4016156  71.0447305
  48.6236228  44.6066159  71.6604961  47.1963026  44.9692918  71.3096389
  48.7498188  40.1526018  77.1649575  48.6933389  40.6094569  76.3257208
  49.3026530  39.3916702  76.9872418  52.5602994  35.9415750  77.9899695
  52.3039928  35.5412385  78.8207903  51.9355862  36.6559543  77.8649834
  56.8715331  38.6811823  80.4970986  56.3114889  38.7505012  81.2702548
  56.2658835  38.5052807  79.7770483  39.9410540  50.1148550  82.2489173
  39.8242924  51.0593982  82.1467863  39.1202987  49.8122111  82.6374972
  49.8287075  44.8398686  73.0945765  50.6632679  44.4079884  72.9123240
  49.6671418  44.6680699  74.0222660  49.4832967  41.3430799  74.4602105
  49.4281771  41.1775070  73.5190549  48.8579022  42.0506832  74.6164294
  34.2725482  36.5798863  88.2863527  34.9184346  36.0697817  88.7750752
  34.0642633  37.3167545  88.8606952  46.7978874  43.6479711  93.7855667
  47.6670034  43.8220363  93.4242302  46.3185626  44.4674128  93.6631397
  42.7929092  30.8438908  74.0387423  42.7807762  31.7880748  74.1955694
  43.6852514  30.6609053  73.7446884  40.9665054  50.7676812  85.4645101
  41.8692301  50.8000422  85.7811596  40.7402424  49.8377263  85.4791437
  42.7218656  49.5207798  82.1255180  41.7714287  49.5209660  82.0119552
  43.0251143  48.7740533  81.6091214  46.6081212  27.4381685  78.2933360
  45.8413608  26.8840171  78.4390042  47.0191917  27.5103553  79.1547511
  38.6122973  33.7266480  92.3838541  39.4754435  33.3703285  92.5941866
  38.0388384  33.3880375  93.0713945  58.4571350  55.3568337  83.1900942
  59.0949760  55.2375084  82.4864282  58.3392193  56.3049181  83.2488894
  55.2661056  55.3095765  83.1262467  54.9279568  55.1936829  82.2383002
  56.1350824  54.9086930  83.1063473  51.1247872  57.1631241  79.1159358
  50.5612737  57.0721178  78.3475645  51.0100267  56.3431146  79.5961850
  55.7480839  56.4630617  89.0848672  55.7369480  56.0683415  88.2129176
  55.9101479  55.7296689  89.6782444  48.6712304  58.6582433  81.9543578
  49.4633596  58.3173257  81.5389877  48.9108954  58.7677408  82.8745731
  56.7047431  60.8302209  74.4273823  56.0535410  61.4156289  74.0407836
  57.4991793  61.3608404  74.4868860  50.6303058  57.9191346  74.8260957
  51.4033934  57.3720333  74.6873833  50.9828457  58.7835595  75.0375418
  52.4688100  59.2467728  88.0327856  52.1777966  60.1513359  87.9174523
  53.1045085  59.2884256  88.7471926  53.3944307  56.6244577  84.6229216
  53.9907879  56.4000599  83.9086179  53.4519279  55.8829322  85.2254664
  52.9669336  54.0784012  72.4579407  53.2194856  53.5565533  71.6962870
  52.0293895  53.9150158  72.5606090  58.0112618  53.0819791  80.2654150
  58.7975708  52.6639214  79.9144567  58.2751323  53.9865883  80.4335798
  58.1822696  58.5192641  74.9642807  57.5468529  58.5927267  75.6763712
  57.8520102  59.1086240  74.2861886  63.4121046  53.0195024  81.1687129
  64.1446217  52.4494241  81.4024958  62.6560401  52.6316624  81.6093634
  52.6865624  55.9812118  74.6603782  52.5701882  55.3057022  75.3284866
  52.7967884  55.4944492  73.8435935  55.0297165  55.4422265  78.3650471
  54.6655372  54.9152886  79.0763393  55.8864281  55.0520734  78.1916956
  60.9346466  46.7316598  85.6281737  60.6029791  47.6012009  85.4042952
  60.3392079  46.4152882  86.3075768  54.6702652  50.4712165  73.3611820
  54.8377055  51.3392401  73.7282291  54.4799821  50.6339447  72.4373109
  57.4277985  58.9329144  85.0277650  57.1278708  59.8354183  84.9193457
  57.0829045  58.6661327  85.8798803  50.8790467  55.3842941  81.0614354
  49.9540963  55.2519155  81.2692046  51.1274880  56.1637160  81.5584297
  60.8275129  51.4511684  82.7075087  59.9192007  51.3827092  82.4133848
  60.7762725  51.9283629  83.5356913  54.6491873  52.9269822  74.3458486
  54.5291498  53.3726873  75.1843967  53.9544461  53.2755140  73.7872025
  48.2399278  55.0276214  81.8958143  48.3691659  55.2810693  82.8097555
  47.5596729  55.6203922  81.5762798  52.4098765  65.6973464  77.9948618
  52.3322795  66.6481289  78.0737098  51.8060409  65.3519337  78.6523544
  54.9015995  52.8701330  90.6509985  54.1249329  53.4295250  90.6412849
  55.5406558  53.3558113  91.1724855  62.6936776  49.6528122  84.4852961
  62.0511156  49.9460656  83.8392756  62.1891704  49.5381043  85.2906158
  60.3476939  53.3991296  75.1738820  61.2594795  53.6318682  74.9986518
  59.8386586  53.9828340  74.6113899  53.1562367  55.6786783  90.2127952
  53.8977052  56.2171827  89.9362775  52.4499353  56.3053072  90.3699503
  58.6317707  57.8215923  88.8100113  59.0401063  57.3798334  88.0654745
  57.9094968  57.2468551  89.0634306  54.9848777  52.7588530  86.1833670
  55.8309972  53.1827944  86.3268319  54.9247415  52.1022155  86.8772233
  58.9546522  58.3817114  82.5652402  58.3255384  58.5462828  81.8628470
  58.5672184  58.7958724  83.3363366  62.8335753  59.3171552  79.9196766
  62.1486792  59.6970453  79.3693799  62.9179603  59.9266879  80.6528713
  58.1348222  50.4192899  87.8414844  57.8909154  51.1734959  87.3049119
  58.4108153  50.7978246  88.6762091  60.0886685  56.9631511  86.5192109
  60.3003580  57.6063271  85.8426490  60.0416433  56.1293827  86.0514039
  57.6912914  49.5749332  83.4228681  56.8297393  49.8730585  83.7145419
  57.7175349  49.7919730  82.4909714  54.5074483  58.1191522  79.8302487
  54.9712829  58.3979225  79.0407109  54.2431282  57.2174967  79.6475578
  51.3998565  57.6663004  82.7682250  51.9699922  58.0950272  82.1299735
  51.9906676  57.3845588  83.4666436  53.4443370  54.2414675  76.6392052
  54.1467413  54.6935718  77.1065978  53.1123998  53.5998493  77.2671945
  51.8923731  52.8326431  91.0143262  51.2622392  53.5142712  91.2478658
  51.7859819  52.7209513  90.0696400  47.1868703  52.4998227  81.9409186
  46.3967757  52.7555756  81.4649296  47.6779951  53.3146565  82.0461226
  61.2032513  59.8403466  84.6914467  62.0249957  59.4383654  84.4097148
  61.1994916  59.7371701  85.6430582  49.1383449  52.8642806  78.8992662
  48.3414612  52.9761501  79.4176158  48.9109041  53.2029459  78.0333553
  54.9689116  59.3887510  86.8475177  55.0333549  59.8507917  87.6833349
  54.2600040  58.7584875  86.9757487  45.4706406  52.7528718  84.3724176
  45.7214445  53.6375728  84.6381752  46.0065955  52.5733319  83.5999268
  69.2938506  56.1842215  81.0399438  68.5402214  55.6149613  80.8843442
  69.4286047  56.1504879  81.9870073  54.6837134  61.0555617  76.7154157
  54.5482809  61.9007153  77.1439005  55.2246947  61.2574895  75.9520091
  51.1704474  47.1347197  93.3768513  50.7771419  46.5813396  94.0516157
  51.9870614  47.4457775  93.7675030  48.1366532  58.5731055  77.2882082
  48.6491052  59.3674305  77.4387647  48.7889244  57.8757346  77.2215684
  49.9461416  61.6896811  79.3704836  50.1228045  62.6114776  79.1825820
  50.7418250  61.3755231  79.7999215  54.0872435  48.5505076  90.9688769
  54.8282148  49.1512229  90.8893232  54.3190358  47.8082714  90.4106812
  49.2313773  53.7361443  89.2466999  49.1167288  52.8346701  89.5474098
  48.3758291  53.9825140  88.8951815  56.3105611  61.6779184  90.8454499
  55.8669465  60.8915562  90.5275404  56.9722824  61.8658334  90.1798390
  51.0692732  63.2074985  85.3715178  51.6200157  63.0792049  84.5992172
  50.2304208  63.5069874  85.0210071  58.4086849  61.9581984  88.8735901
  58.3905324  62.7790865  88.3816170  59.3306769  61.8336059  89.0986042
  54.8659903  59.4726113  89.7159409  55.3988240  58.7114401  89.4858717
  54.3373984  59.1799765  90.4583564  58.0329598  44.5786179  85.2453051
  57.6893867  45.4687821  85.1692161  58.4008560  44.3887837  84.3822636
  46.1015448  56.9019709  78.0641653  46.9390670  57.3116718  77.8475361
  46.2793716  55.9619152  78.0341847  57.9979880  54.5694790  73.7525486
  57.4826504  55.3399395  73.9913873  57.7257189  53.8959926  74.3758547
  55.5826991  49.4144491  78.8110724  54.7268588  49.0251341  78.6316363
  55.9953943  49.4936452  77.9510510  57.1126138  46.9490834  83.2102284
  56.6090934  46.9120969  82.3970089  57.4056745  47.8583577  83.2698941
  53.3569024  47.0329564  82.2168466  54.2222021  46.8372373  81.8574355
  53.4246533  46.8039916  83.1437823  62.9714155  57.3227145  75.6878659
  62.1943597  56.9838304  75.2433821  63.6505636  57.3279768  75.0133624
  57.7866184  52.4421882  75.5785267  57.4816319  52.7568031  76.4295410
  58.7396626  52.5203302  75.6212600  56.2312615  58.6012106  77.2278221
  55.7033977  57.8664865  76.9151459  55.7300118  59.3786782  76.9818189
  61.2105461  56.7961126  82.3445267  60.5529136  57.4860387  82.4325396
  62.0145861  57.1857558  82.6879254  50.9631343  49.2631772  79.5884833
  51.5375095  49.0406953  78.8558026  51.5502325  49.3320466  80.3413434
  60.0210920  55.1505499  80.3949209  60.5342802  55.7835491  80.8970919
  60.6712144  54.5506694  80.0292569  51.2900930  51.2936233  73.6080718
  50.4538242  51.6310919  73.9289993  51.1505700  51.1585213  72.6707855
  53.2654011  46.1373021  78.3159902  52.6118423  45.8222038  77.6916517
  53.2234485  45.5148761  79.0419725  54.3765216  56.4192316  70.2313194
  53.4692277  56.1881569  70.4304343  54.8736248  55.6229935  70.4187176
  57.2833294  65.1289823  73.1509880  56.6094993  65.4321520  73.7594838
  57.6699116  65.9318903  72.8015337  56.4991751  52.6254954  82.6407550
  55.5814312  52.8469901  82.4829238  56.9151895  52.7001265  81.7819257
  57.2826799  54.0246370  77.7710230  58.0298618  54.5367767  77.4617352
  57.5518388  53.7030423  78.6314623  55.5553449  56.5204911  74.7537184
  54.6464668  56.2363943  74.8509654  55.5848533  56.9403989  73.8940491
  60.7872716  60.1311500  78.5228352  60.3335044  59.2902410  78.5793542
  60.1566683  60.7672899  78.8603132  59.7305636  51.0603486  79.7529019
  58.9928393  50.5480872  80.0839262  59.9832410  50.6203868  78.9412296
  59.2305656  61.9687997  79.4578170  59.5228630  62.5293054  78.7390536
  59.7404276  62.2616558  80.2131329  59.8317263  43.8379738  80.3470788
  60.1376140  42.9777102  80.0596704  60.5569868  44.4297358  80.1469782
  46.1241619  54.2410425  78.7352386  45.9266019  53.6479786  78.0103453
  45.5688283  53.9362635  79.4528325  54.1038343  54.1333531  80.8546980
  54.1586953  53.1807368  80.7789456  53.2929545  54.2892970  81.3388278
  55.2529537  58.0613654  72.0925263  54.8148967  57.3449513  71.6330900
  55.9939978  58.2889769  71.5310354  52.0430703  52.7510591  78.6137358
  51.2298569  53.0504762  79.0202551  52.5389697  52.3566280  79.3311841
  54.1939281  62.7468348  80.5471623  54.1515460  62.9729194  79.6180155
  55.1101980  62.5131723  80.6957424  57.6404915  53.2152416  87.4452252
  57.9954302  53.4423889  88.3046718  58.2877046  53.5470792  86.8229508
  63.3702652  56.3370851  78.1501581  63.2320550  56.5272447  77.2222771
  63.0138870  57.0990234  78.6069632  51.5344778  50.3228947  84.2298593
  52.1744157  50.1817706  83.5321557  50.7022308  50.0363460  83.8537195
  63.3972031  58.4047378  83.1612853  63.8308538  58.3122667  84.0095907
  64.1103612  58.3804879  82.5232869  52.3105082  59.6231377  80.3433586
  53.1045680  59.1281697  80.1416161  51.5996774  59.0949240  79.9801291
  57.1299926  62.0049473  84.6945953  57.1836948  62.5740409  85.4623669
  56.2614708  62.1751358  84.3299991  48.6187845  53.7674459  76.4193339
  47.6885433  53.7058914  76.6363301  48.7145317  53.2450411  75.6229980
  48.5373394  50.2929272  79.0071580  48.7980211  51.2074605  78.8980741
  49.3590567  49.8253714  79.1568193  50.0098320  51.7067029  86.1770405
  50.6821373  51.4984391  85.5283054  49.1828106  51.5089115  85.7375637
  64.2587581  58.4471079  85.6945738  64.4523471  59.3516890  85.9405013
  64.1588199  57.9878498  86.5284323  55.9123892  48.3328970  88.1936066
  55.2651807  49.0318919  88.1000542  56.6824907  48.7665114  88.5612314
  59.3202689  58.5977822  91.2686619  59.1688196  58.3688373  90.3516703
  59.3107369  59.5548423  91.2817964  56.0888026  56.1709735  86.2532885
  57.0180086  56.3220894  86.0801853  55.6679056  56.2593755  85.3981532
  54.8876358  60.1960399  84.0231423  54.7487443  59.8279183  84.8957361
  54.0990954  60.7108038  83.8515381  55.4824510  65.2969495  75.3656959
  55.6576265  64.8257539  76.1802582  54.7957298  65.9235262  75.5938220
  56.4381573  59.5742002  81.4120261  56.1031405  59.5342772  82.3077911
  55.9385518  58.9086718  80.9390671  50.4125817  54.9809632  86.9372842
  50.2745615  54.2489871  87.5384381  51.3230740  54.8918532  86.6557030
  59.3740764  56.9198036  71.6857320  58.7569935  56.1944864  71.5890373
  58.9057253  57.6807396  71.3424395  53.0408117  54.6929591  86.4256522
  53.7507736  54.0522783  86.3843140  52.9977426  54.9442486  87.3482702
  61.0294896  61.6296944  89.3463101  60.9707442  60.9456164  88.6793684
  61.4314415  62.3715934  88.8943727  51.7537051  51.6794809  88.2452161
  51.2174408  51.2285547  88.8973757  51.1653760  51.8140718  87.5022625
  50.0485595  68.4458858  82.1396820  50.2882193  69.0777382  82.8175838
  49.2054791  68.0946898  82.4262179  51.1639310  51.1383460  70.8078625
  50.2868777  51.0172261  70.4440871  51.6397063  50.3469539  70.5557513
  61.0312303  59.5936528  87.5777080  60.1439082  59.2562450  87.7003479
  61.6010854  58.8619560  87.8145846  42.6841451  55.9260620  80.9020132
  43.3712490  55.6122350  80.3141147  42.5289579  56.8301985  80.6287383
  47.4876173  50.8150817  85.3305156  47.4034361  50.2076486  84.5955565
  46.6658879  51.3059835  85.3314652  54.5613457  64.2537981  84.5438324
  54.4883628  65.0592952  85.0557628  54.1190850  64.4529946  83.7186345
  54.3503236  63.4909751  78.0541145  53.5670758  64.0331431  78.1479370
  55.0495982  64.0083730  78.4535386  57.6599887  49.3004380  80.6975351
  58.1568586  48.5474342  80.3776421  56.8886868  49.3368697  80.1318560
  65.5129644  55.0044746  82.3393642  65.5019520  55.8869461  81.9687575
  64.6447023  54.6516296  82.1448179  57.0212140  64.1524815  86.6996482
  57.7340113  64.7872279  86.6272384  56.5302169  64.2488681  85.8836484
  58.7429667  58.0576067  78.2713774  57.8085946  58.1777530  78.1018478
  58.9206336  57.1548534  78.0073784  54.2434855  51.4421763  80.4247035
  53.8732643  50.8892803  81.1127941  54.7393948  50.8379897  79.8722035
  62.1302219  53.8993387  78.8063808  62.5962671  54.7321378  78.7324111
  62.5809719  53.4338368  79.5109067  52.0724054  61.9019258  87.5202053
  52.7733513  62.5355741  87.6731447  51.6019169  62.2433990  86.7597692
  60.1978450  60.2437208  75.8049960  60.4738294  60.1293802  76.7143834
  59.3282948  59.8454693  75.7662133  60.1018881  46.2673974  82.8454709
  59.1881961  46.4978200  83.0136916  60.5311983  46.3512418  83.6968742
  59.8725340  54.4563866  85.3454603  59.2196790  54.7039773  84.6907056
  60.2505720  53.6428004  85.0117081  56.8332514  64.4923559  79.4482774
  57.0154908  63.6745215  79.9110526  57.6565500  64.7091251  79.0107664
  57.1674679  63.4191744  76.7097822  57.6962446  62.9084198  76.0967984
  57.4302899  63.1034274  77.5743355  55.9212913  55.1983677  91.8320641
  55.2453550  55.0977806  92.5023016  56.7440547  55.0422890  92.2956638
  47.6691772  61.4355613  84.4533156  48.2545209  60.6899301  84.5861060
  47.4716610  61.7459570  85.3369820  50.5230427  64.4706861  79.4695598
  49.8540802  64.9552988  78.9859638  50.3843297  64.7176081  80.3838977
  42.2609427  54.0061213  83.1737599  42.2993526  53.4724804  83.9674717
  41.7549719  53.4796419  82.5548576  54.6635696  66.5050604  86.0678257
  55.2154004  66.6682226  86.8327342  55.0041889  67.0955042  85.3958281
  49.6400189  48.8525754  86.6700141  49.7041515  49.7140585  86.2577539
  49.5767309  48.2399756  85.9372500  49.1152461  50.9248886  90.3173175
  49.7424500  50.5425964  90.9310700  48.2580380  50.7063088  90.6828868
  59.5146570  61.3311862  91.9226911  60.0586474  61.9441820  91.4281866
  58.9333415  61.8891440  92.4393924  45.8918004  52.7325316  76.2491530
  46.1871445  51.8235994  76.1958584  44.9906040  52.7113055  75.9272533
  57.8004083  64.4532580  83.0541939  57.6755222  63.6522319  82.5452884
  58.4583174  64.9478773  82.5655909  49.4212251  50.8081312  82.2319079
  48.6998837  51.4217280  82.0926552  50.2105507  51.3439077  82.1535725
  59.8638991  62.2541600  84.6821489  58.9169327  62.1346951  84.6099816
  60.2121764  61.3664098  84.7647750  52.2238565  48.1435739  88.5059731
  52.7472967  48.3898035  89.2686040  52.0050898  48.9755773  88.0862868
  47.6205846  50.4139413  76.3730855  47.2918552  49.5336792  76.1905961
  47.9745216  50.3587082  77.2607245  56.8685425  62.0494316  80.8825841
  56.7210387  61.1211023  81.0633411  57.6938918  62.0714407  80.3982916
  50.7347669  50.7012383  76.7406333  51.0743741  51.2298304  76.0184942
  51.1819789  51.0392789  77.5164900  60.4719547  62.8722875  81.9690714
  61.3966094  62.6665736  81.8315165  60.3034850  62.6239276  82.8780055
  53.4291110  49.0849434  86.1909401  53.0887930  48.2857247  86.5930081
  52.7230116  49.3851145  85.6186234  54.0807582  46.1698746  84.6436724
  54.9033651  45.6959224  84.5215615  54.3245645  46.9489230  85.1435411
  52.7215816  49.1987005  74.9399626  53.4424179  49.5768257  74.4363343
  52.0981120  49.9175881  75.0434604  56.8646939  49.9032154  75.8757958
  57.0810553  50.7856791  75.5746786  56.3841006  49.5118367  75.1463600
  51.6046160  52.8617867  82.4528703  51.4590741  53.1758170  83.3452984
  51.1271364  53.4802767  81.8999601  53.4642543  49.8520415  82.5009592
  53.4504112  48.9561508  82.1641890  54.1814971  49.8591079  83.1347878
  55.3168674  50.2857755  84.5462720  55.0586452  51.2074826  84.5447050
  54.7853714  49.8888190  85.2363184  60.2614863  63.3908542  77.3252805
  60.4351740  62.8254965  76.5726658  60.7543754  64.1909437  77.1432295
  46.0791823  55.4023211  85.3916364  45.5345291  56.1783019  85.5236638
  46.9571172  55.7494016  85.2335485  52.8679439  48.7334795  77.7697163
  52.9895350  47.8051441  77.9688050  52.5781482  48.7473481  76.8575478
  55.7370630  46.4189705  80.9063882  55.7592326  46.4829039  79.9515862
  56.1538689  45.5794214  81.1004389  66.1154254  56.1544965  78.9443105
  66.5585400  55.4052290  78.5462228  65.2380764  56.1455101  78.5616837
  61.2490035  62.7075307  74.4249703  61.9440940  63.3281999  74.6437018
  61.5913185  61.8570658  74.7002081  46.8657844  54.5293107  88.2846521
  46.1239580  54.6775743  88.8711151  46.5450589  54.7901373  87.4213270
  63.1481458  60.1575012  75.9537034  63.6732782  60.4962285  75.2286354
  63.0603811  59.2222027  75.7700169  54.8101507  64.0709086  88.0826911
  55.1188633  63.8258232  88.9549610  55.6076989  64.2755724  87.5945781
  54.8322119  66.2246995  80.3132287  54.3927109  65.7323374  81.0065144
  55.5830236  65.6819963  80.0724363  47.3114458  62.4158536  80.3156916
  48.1372478  62.1162308  79.9355559  46.9608510  61.6466159  80.7646704
  52.2795991  61.7685004  82.3854589  51.6576001  61.1055709  82.0856817
  52.9500858  61.7946136  81.7028237  45.5123063  60.3344863  81.2745849
  44.6754971  59.9067037  81.0929850  45.4846709  60.5277306  82.2116640
  52.3520519  50.2466792  91.9787095  52.4008674  51.1228915  91.5964865
  52.8943033  49.7044185  91.4058738  62.8375364  60.7907916  91.2588232
  62.0470908  60.7732055  90.7192732  62.6008719  61.3296209  92.0137269
  62.9573239  57.6400382  88.5720961  63.0071244  57.4750389  89.5136484
  62.8487163  56.7727641  88.1818842  51.8409498  60.3188928  75.8613050
  51.9897619  61.0024392  75.2079722  52.6475942  60.2994018  76.3762505
  60.2477002  53.6231310  89.8880267  61.1486865  53.4837775  89.5964265
  60.3224976  53.7885765  90.8278445  54.5819807  50.9998165  88.7333454
  53.7123117  51.2931731  88.4616042  54.8179288  51.5838610  89.4540717
  64.4591436  60.0597324  88.8162982  64.1676245  60.4227304  89.6526443
  63.8463568  59.3464332  88.6376314  65.6587119  57.6250203  81.3365553
  66.4934010  58.0640007  81.5003113  65.7946247  57.1488857  80.5173798
  62.7078625  55.1829938  87.2843040  63.1832746  55.3757584  86.4761892
  61.7844190  55.2389124  87.0386424  49.5962131  56.3454105  76.8674119
  49.3508173  55.4416435  77.0654329  49.7658046  56.3471256  75.9253597
  57.2858841  47.2177782  86.2498874  57.8040785  47.9538809  85.9245363
  56.9313974  47.5241775  87.0845633  48.8657779  52.0782463  74.3660280
  48.1727024  52.1526818  73.7100316  48.6209531  51.3142807  74.8881797
  57.5371435  43.6378064  81.7699771  57.8173189  42.9701253  82.3960197
  58.3222042  43.8307160  81.2574435  55.3404904  62.8137058  73.3324797
  54.7678871  63.4327245  72.8795269  55.9137697  63.3636420  73.8664719
  61.4080294  52.0595698  85.5171346  62.3597716  52.1593796  85.5383570
  61.2383744  51.2673967  86.0269430  59.4294673  49.1451281  85.7030747
  58.8344605  49.4256294  85.0077235  59.1444370  49.6345182  86.4747488
  58.5602163  63.0974208  74.4633379  59.4932837  63.0319770  74.6666255
  58.4725376  63.9330475  74.0047912  63.8868371  55.2801818  84.6313646
  63.8544691  54.3417819  84.8173329  64.4968995  55.3585855  83.8979470
  55.7251702  54.1497871  70.6740850  56.6710807  54.0204079  70.7429268
  55.3465947  53.4112533  71.1510278  64.0362860  52.0712861  84.6771929
  63.5201908  51.2871318  84.4901858  64.9202808  51.7431578  84.8418448
  61.6973587  45.8153877  80.6367741  61.4998408  45.5068965  81.5211073
  62.3073292  46.5415516  80.7665671  67.7860218  54.4825687  84.3694134
  67.0593382  54.3481652  83.7610625  67.3707505  54.7902516  85.1750852
  55.6090395  58.2015617  92.1341507  56.5293404  58.3794216  92.3281553
  55.5739978  57.2571662  91.9821206  53.9094619  52.0747847  70.6095735
  53.0026075  51.7780960  70.6858448  54.1870600  51.7777665  69.7430021
  44.8272560  53.3954211  81.0594781  44.5075344  52.5419519  80.7669155
  44.2805988  53.6102789  81.8152749  48.6052467  56.1116652  84.7764288
  48.8238477  57.0433760  84.7952322  49.0178241  55.7524626  85.5619092
  55.5256685  46.6184737  76.7639976  54.7157413  46.2731822  77.1395222
  56.2141102  46.3092281  77.3527588  57.4547233  45.6962784  78.3864273
  58.0078272  46.1158237  79.0454296  57.6917320  44.7698532  78.4287229
  53.4780333  51.6849857  94.1667037  53.3777059  52.6344214  94.0979128
  53.2601875  51.3568096  93.2943107  52.6793404  48.9334783  70.7507714
  53.5412568  49.2589681  71.0103531  52.8643748  48.1466278  70.2380780
  44.6960820  57.0157122  83.0287903  44.0024291  56.6011075  82.5157857
  45.4433811  57.0577659  82.4321322  60.8326040  47.8063309  77.8942937
  60.2524709  48.4648113  77.5120989  60.5661973  46.9840654  77.4830354
  59.2829607  47.2068367  80.0964257  59.7829385  47.3184901  79.2878576
  59.9265215  46.9029420  80.7365066  53.3411603  55.1146996  92.9832098
  52.8578684  55.9147356  93.1895987  53.4272542  55.1254941  92.0299542
  46.6097562  56.9475376  80.9053918  46.5868250  57.0463063  79.9535801
  46.9198199  57.7940527  81.2271084  49.2684940  59.0051531  85.0200532
  50.2228194  58.9735473  84.9530464  49.0697464  58.5442155  85.8350758
  49.8584322  57.5752647  87.5871330  50.6777211  58.0696726  87.6106167
  50.1321130  56.6584615  87.5588897  59.6150918  49.9663399  76.9499285
  58.7276773  50.2513050  76.7319480  60.0304908  49.8057163  76.1026562
  62.9665455  49.9909920  80.6653624  63.7425845  50.4806373  80.9378241
  62.2413589  50.4167975  81.1225494  65.4038013  50.7037540  81.7227565
  65.9982504  50.4633276  81.0120873  65.4764597  49.9844670  82.3501101
  47.6235169  64.5471151  82.0370730  47.4889637  63.7871551  81.4708728
  47.2067231  65.2712050  81.5699519  58.7594132  59.7308074  71.0447305
  59.4629982  59.9358077  71.6604961  58.0356781  60.2984836  71.3096389
  59.5891942  55.4817935  77.1649575  59.5327144  55.9386487  76.3257208
  60.1420285  54.7208620  76.9872418  63.3996748  51.2707667  77.9899695
  63.1433682  50.8704303  78.8207903  62.7749616  51.9851461  77.8649834
  67.7109086  54.0103740  80.4970986  67.1508644  54.0796930  81.2702548
  67.1052589  53.8344725  79.7770483  50.7804295  65.4440468  82.2489173
  50.6636679  66.3885900  82.1467863  49.9596741  65.1414029  82.6374972
  60.6680829  60.1690603  73.0945765  61.5026433  59.7371802  72.9123240
  60.5065172  59.9972617  74.0222660  60.3226721  56.6722717  74.4602105
  60.2675525  56.5066988  73.5190549  59.6972777  57.3798749  74.6164294
  45.1119236  51.9090781  88.2863527  45.7578100  51.3989735  88.7750752
  44.9036388  52.6459463  88.8606952  57.6372629  58.9771628  93.7855667
  58.5063788  59.1512281  93.4242302  57.1579380  59.7966045  93.6631397
  53.6322847  46.1730826  74.0387423  53.6201517  47.1172665  74.1955694
  54.5246269  45.9900971  73.7446884  51.8058809  66.0968729  85.4645101
  52.7086056  66.1292340  85.7811596  51.5796179  65.1669180  85.4791437
  53.5612411  64.8499716  82.1255180  52.6108042  64.8501578  82.0119552
  53.8644897  64.1032451  81.6091214  57.4474966  42.7673602  78.2933360
  56.6807362  42.2132089  78.4390042  57.8585671  42.8395471  79.1547511
  49.4516727  49.0558398  92.3838541  50.3148189  48.6995203  92.5941866
  48.8782138  48.7172293  93.0713945  69.2965104  70.6860254  83.1900942
  69.9343514  70.5667002  82.4864282  69.1785947  71.6341098  83.2488894
  66.1054811  70.6387682  83.1262467  65.7673322  70.5228747  82.2383002
  66.9744579  70.2378848  83.1063473  61.9641626  72.4923159  79.1159358
  61.4006492  72.4013096  78.3475645  61.8494021  71.6723063  79.5961850
  66.5874594  71.7922534  89.0848672  66.5763234  71.3975332  88.2129176
  66.7495233  71.0588607  89.6782444  59.5106058  73.9874350  81.9543578
  60.3027350  73.6465175  81.5389877  59.7502708  74.0969326  82.8745731
  67.5441185  76.1594127  74.4273823  66.8929165  76.7448207  74.0407836
  68.3385548  76.6900321  74.4868860  61.4696812  73.2483264  74.8260957
  62.2427688  72.7012251  74.6873833  61.8222211  74.1127513  75.0375418
  63.3081855  74.5759646  88.0327856  63.0171721  75.4805277  87.9174523
  63.9438839  74.6176174  88.7471926  64.2338062  71.9536495  84.6229216
  64.8301634  71.7292517  83.9086179  64.2913033  71.2121240  85.2254664
  68.8506373  68.4111708  80.2654150  69.6369462  67.9931131  79.9144567
  69.1145077  69.3157800  80.4335798  69.0216450  73.8484559  74.9642807
  68.3862283  73.9219185  75.6763712  68.6913857  74.4378157  74.2861886
  74.2514800  68.3486941  81.1687129  74.9839972  67.7786158  81.4024958
  73.4954156  67.9608542  81.6093634  63.5259379  71.3104036  74.6603782
  63.4095637  70.6348939  75.3284866  63.6361639  70.8236410  73.8435935
  65.8690920  70.7714183  78.3650471  65.5049127  70.2444804  79.0763393
  66.7258036  70.3812652  78.1916956  71.7740220  62.0608516  85.6281737
  71.4423545  62.9303926  85.4042952  71.1785834  61.7444800  86.3075768
  68.2671740  74.2621062  85.0277650  67.9672463  75.1646100  84.9193457
  67.9222799  73.9953245  85.8798803  61.7184221  70.7134858  81.0614354
  60.7934718  70.5811072  81.2692046  61.9668635  71.4929078  81.5584297
  71.6668884  66.7803602  82.7075087  70.7585761  66.7119010  82.4133848
  71.6156479  67.2575547  83.5356913  65.4885628  68.2561740  74.3458486
  65.3685253  68.7018791  75.1843967  64.7938216  68.6047058  73.7872025
  59.0793032  70.3568132  81.8958143  59.2085414  70.6102611  82.8097555
  58.3990484  70.9495840  81.5762798  63.2492520  81.0265382  77.9948618
  63.1716549  81.9773207  78.0737098  62.6454163  80.6811254  78.6523544
  65.7409749  68.1993247  90.6509985  64.9643084  68.7587167  90.6412849
  66.3800313  68.6850030  91.1724855  73.5330530  64.9820040  84.4852961
  72.8904910  65.2752573  83.8392756  73.0285459  64.8672960  85.2906158
  71.1870694  68.7283213  75.1738820  72.0988550  68.9610600  74.9986518
  70.6780341  69.3120258  74.6113899  63.9956122  71.0078701  90.2127952
  64.7370806  71.5463745  89.9362775  63.2893107  71.6344989  90.3699503
  69.4711461  73.1507841  88.8100113  69.8794817  72.7090252  88.0654745
  68.7488723  72.5760469  89.0634306  65.8242531  68.0880448  86.1833670
  66.6703727  68.5119861  86.3268319  65.7641169  67.4314072  86.8772233
  69.7940276  73.7109032  82.5652402  69.1649139  73.8754746  81.8628470
  69.4065938  74.1250641  83.3363366  73.6729508  74.6463470  79.9196766
  72.9880546  75.0262371  79.3693799  73.7573357  75.2558796  80.6528713
  68.9741977  65.7484816  87.8414844  68.7302909  66.5026877  87.3049119
  69.2501907  66.1270164  88.6762091  70.9280440  72.2923429  86.5192109
  71.1397335  72.9355189  85.8426490  70.8810188  71.4585745  86.0514039
  68.5306669  64.9041249  83.4228681  67.6691148  65.2022503  83.7145419
  68.5569103  65.1211648  82.4909714  65.3468238  73.4483440  79.8302487
  65.8106583  73.7271143  79.0407109  65.0825036  72.5466884  79.6475578
  62.2392319  72.9954921  82.7682250  62.8093676  73.4242190  82.1299735
  62.8300431  72.7137506  83.4666436  64.2837124  69.5706592  76.6392052
  64.9861167  70.0227636  77.1065978  63.9517752  68.9290411  77.2671945
  62.7317486  68.1618349  91.0143262  62.1016146  68.8434630  91.2478658
  62.6253573  68.0501430  90.0696400  58.0262458  67.8290145  81.9409186
  57.2361512  68.0847673  81.4649296  58.5173705  68.6438483  82.0461226
  72.0426268  75.1695384  84.6914467  72.8643711  74.7675571  84.4097148
  72.0388670  75.0663618  85.6430582  59.9777203  68.1934724  78.8992662
  59.1808367  68.3053418  79.4176158  59.7502796  68.5321376  78.0333553
  65.8082871  74.7179427  86.8475177  65.8727303  75.1799835  87.6833349
  65.0993795  74.0876792  86.9757487  56.3100161  68.0820635  84.3724176
  56.5608199  68.9667645  84.6381752  56.8459709  67.9025237  83.5999268
  80.1332261  71.5134133  81.0399438  79.3795969  70.9441531  80.8843442
  80.2679802  71.4796797  81.9870073  65.5230889  76.3847535  76.7154157
  65.3876563  77.2299071  77.1439005  66.0640701  76.5866812  75.9520091
  62.0098228  62.4639115  93.3768513  61.6165174  61.9105313  94.0516157
  62.8264369  62.7749693  93.7675030  58.9760286  73.9022973  77.2882082
  59.4884807  74.6966223  77.4387647  59.6282999  73.2049263  77.2215684
  60.7855171  77.0188729  79.3704836  60.9621799  77.9406694  79.1825820
  61.5812004  76.7047148  79.7999215  64.9266189  63.8796994  90.9688769
  65.6675903  64.4804147  90.8893232  65.1584112  63.1374632  90.4106812
  60.0707527  69.0653361  89.2466999  59.9561042  68.1638618  89.5474098
  59.2152045  69.3117058  88.8951815  67.1499365  77.0071101  90.8454499
  66.7063219  76.2207480  90.5275404  67.8116579  77.1950252  90.1798390
  61.9086486  78.5366903  85.3715178  62.4593911  78.4083966  84.5992172
  61.0697962  78.8361792  85.0210071  69.2480603  77.2873901  88.8735901
  69.2299078  78.1082782  88.3816170  70.1700523  77.1627976  89.0986042
  65.7053657  74.8018031  89.7159409  66.2381994  74.0406319  89.4858717
  65.1767738  74.5091683  90.4583564  68.8723352  59.9078097  85.2453051
  68.5287622  60.7979738  85.1692161  69.2402315  59.7179754  84.3822636
  56.9409203  72.2311627  78.0641653  57.7784425  72.6408636  77.8475361
  57.1187470  71.2911069  78.0341847  68.8373635  69.8986708  73.7525486
  68.3220258  70.6691312  73.9913873  68.5650943  69.2251844  74.3758547
  66.4220746  64.7436409  78.8110724  65.5662342  64.3543259  78.6316363
  66.8347698  64.8228369  77.9510510  67.9519893  62.2782752  83.2102284
  67.4484688  62.2412887  82.3970089  68.2450499  63.1875495  83.2698941
  64.1962778  62.3621482  82.2168466  65.0615775  62.1664290  81.8574355
  64.2640287  62.1331833  83.1437823  73.8107909  72.6519062  75.6878659
  73.0337352  72.3130222  75.2433821  74.4899390  72.6571686  75.0133624
  68.6259938  67.7713800  75.5785267  68.3210074  68.0859949  76.4295410
  69.5790380  67.8495220  75.6212600  67.0706370  73.9304023  77.2278221
  66.5427731  73.1956783  76.9151459  66.5693873  74.7078700  76.9818189
  72.0499216  72.1253044  82.3445267  71.3922890  72.8152305  82.4325396
  72.8539615  72.5149476  82.6879254  61.8025098  64.5923690  79.5884833
  62.3768849  64.3698871  78.8558026  62.3896080  64.6612384  80.3413434
  70.8604675  70.4797416  80.3949209  71.3736556  71.1127408  80.8970919
  71.5105899  69.8798612  80.0292569  64.1047765  61.4664938  78.3159902
  63.4512178  61.1513956  77.6916517  64.0628239  60.8440679  79.0419725
  68.1227049  80.4581741  73.1509880  67.4488748  80.7613437  73.7594838
  68.5092871  81.2610821  72.8015337  67.3385506  67.9546872  82.6407550
  66.4208067  68.1761819  82.4829238  67.7545649  68.0293182  81.7819257
  68.1220553  69.3538288  77.7710230  68.8692372  69.8659685  77.4617352
  68.3912143  69.0322340  78.6314623  66.3947204  71.8496828  74.7537184
  65.4858423  71.5655861  74.8509654  66.4242287  72.2695907  73.8940491
  71.6266471  75.4603418  78.5228352  71.1728798  74.6194328  78.5793542
  70.9960438  76.0964816  78.8603132  70.5699391  66.3895404  79.7529019
  69.8322147  65.8772790  80.0839262  70.8226164  65.9495785  78.9412296
  70.0699410  77.2979915  79.4578170  70.3622385  77.8584972  78.7390536
  70.5798031  77.5908476  80.2131329  56.9635374  69.5702342  78.7352386
  56.7659774  68.9771703  78.0103453  56.4082038  69.2654553  79.4528325
  64.9432098  69.4625449  80.8546980  64.9980707  68.5099285  80.7789456
  64.1323300  69.6184888  81.3388278  66.0923291  73.3905572  72.0925263
  65.6542721  72.6741431  71.6330900  66.8333732  73.6181687  71.5310354
  62.8824457  68.0802509  78.6137358  62.0692323  68.3796679  79.0202551
  63.3783452  67.6858197  79.3311841  65.0333035  78.0760266  80.5471623
  64.9909214  78.3021112  79.6180155  65.9495734  77.8423640  80.6957424
  68.4798669  68.5444333  87.4452252  68.8348057  68.7715806  88.3046718
  69.1270800  68.8762710  86.8229508  74.2096406  71.6662769  78.1501581
  74.0714305  71.8564365  77.2222771  73.8532625  72.4282152  78.6069632
  62.3738532  65.6520864  84.2298593  63.0137912  65.5109623  83.5321557
  61.5416063  65.3655378  83.8537195  74.2365786  73.7339296  83.1612853
  74.6702292  73.6414585  84.0095907  74.9497366  73.7096797  82.5232869
  63.1498836  74.9523295  80.3433586  63.9439435  74.4573615  80.1416161
  62.4390529  74.4241158  79.9801291  67.9693681  77.3341390  84.6945953
  68.0230703  77.9032326  85.4623669  67.1008462  77.5043275  84.3299991
  59.4581600  69.0966376  76.4193339  58.5279188  69.0350832  76.6363301
  59.5539072  68.5742329  75.6229980  59.3767149  65.6221189  79.0071580
  59.6373966  66.5366522  78.8980741  60.1984321  65.1545632  79.1568193
  60.8492074  67.0358946  86.1770405  61.5215127  66.8276309  85.5283054
  60.0221861  66.8381032  85.7375637  75.0981335  73.7762997  85.6945738
  75.2917225  74.6808807  85.9405013  74.9981953  73.3170416  86.5284323
  66.7517646  63.6620887  88.1936066  66.1045561  64.3610837  88.1000542
  67.5218661  64.0957031  88.5612314  70.1596444  73.9269739  91.2686619
  70.0081950  73.6980291  90.3516703  70.1501123  74.8840341  91.2817964
  66.9281780  71.5001652  86.2532885  67.8573840  71.6512812  86.0801853
  66.5072810  71.5885673  85.3981532  65.7270112  75.5252317  84.0231423
  65.5881198  75.1571101  84.8957361  64.9384708  76.0399956  83.8515381
  66.3218264  80.6261413  75.3656959  66.4970020  80.1549456  76.1802582
  65.6351052  81.2527179  75.5938220  67.2775327  74.9033919  81.4120261
  66.9425160  74.8634689  82.3077911  66.7779273  74.2378635  80.9390671
  61.2519571  70.3101549  86.9372842  61.1139369  69.5781788  87.5384381
  62.1624495  70.2210449  86.6557030  63.8801872  70.0221509  86.4256522
  64.5901490  69.3814701  86.3843140  63.8371180  70.2734404  87.3482702
  71.8688651  76.9588862  89.3463101  71.8101197  76.2748082  88.6793684
  72.2708169  77.7007852  88.8943727  62.5930806  67.0086727  88.2452161
  62.0568163  66.5577465  88.8973757  62.0047514  67.1432635  87.5022625
  60.8879349  83.7750776  82.1396820  61.1275948  84.4069300  82.8175838
  60.0448546  83.4238816  82.4262179  71.8706058  74.9228446  87.5777080
  70.9832837  74.5854368  87.7003479  72.4404609  74.1911477  87.8145846
  53.5235205  71.2552538  80.9020132  54.2106245  70.9414268  80.3141147
  53.3683334  72.1593902  80.6287383  58.3269927  66.1442734  85.3305156
  58.2428116  65.5368404  84.5955565  57.5052634  66.6351753  85.3314652
  65.4007211  79.5829898  84.5438324  65.3277383  80.3884870  85.0557628
  64.9584604  79.7821864  83.7186345  65.1896991  78.8201668  78.0541145
  64.4064513  79.3623349  78.1479370  65.8889736  79.3375648  78.4535386
  68.4993641  64.6296298  80.6975351  68.9962341  63.8766260  80.3776421
  67.7280623  64.6660614  80.1318560  76.3523398  70.3336663  82.3393642
  76.3413275  71.2161379  81.9687575  75.4840778  69.9808214  82.1448179
  67.8605895  79.4816732  86.6996482  68.5733867  80.1164197  86.6272384
  67.3695923  79.5780598  85.8836484  69.5823422  73.3867985  78.2713774
  68.6479700  73.5069447  78.1018478  69.7600090  72.4840452  78.0073784
  65.0828610  66.7713681  80.4247035  64.7126397  66.2184721  81.1127941
  65.5787702  66.1671814  79.8722035  72.9695973  69.2285304  78.8063808
  73.4356425  70.0613296  78.7324111  73.4203474  68.7630286  79.5109067
  62.9117808  77.2311176  87.5202053  63.6127268  77.8647659  87.6731447
  62.4412923  77.5725907  86.7597692  71.0372204  75.5729126  75.8049960
  71.3132048  75.4585720  76.7143834  70.1676703  75.1746610  75.7662133
  70.9412636  61.5965891  82.8454709  70.0275716  61.8270118  83.0136916
  71.3705737  61.6804335  83.6968742  70.7119094  69.7855783  85.3454603
  70.0590545  70.0331691  84.6907056  71.0899474  68.9719921  85.0117081
  67.6726268  79.8215476  79.4482774  67.8548663  79.0037132  79.9110526
  68.4959254  80.0383169  79.0107664  68.0068434  78.7483662  76.7097822
  68.5356200  78.2376116  76.0967984  68.2696653  78.4326192  77.5743355
  66.7606667  70.5275594  91.8320641  66.0847304  70.4269724  92.5023016
  67.5834301  70.3714808  92.2956638  58.5085526  76.7647531  84.4533156
  59.0938963  76.0191219  84.5861060  58.3110365  77.0751488  85.3369820
  61.3624182  79.7998778  79.4695598  60.6934557  80.2844906  78.9859638
  61.2237051  80.0467999  80.3838977  53.1003181  69.3353131  83.1737599
  53.1387281  68.8016722  83.9674717  52.5943474  68.8088337  82.5548576
  65.5029450  81.8342522  86.0678257  66.0547758  81.9974143  86.8327342
  65.8435644  82.4246960  85.3958281  60.4793943  64.1817672  86.6700141
  60.5435270  65.0432502  86.2577539  60.4161064  63.5691673  85.9372500
  59.9546216  66.2540804  90.3173175  60.5818255  65.8717881  90.9310700
  59.0974135  66.0355006  90.6828868  70.3540325  76.6603779  91.9226911
  70.8980229  77.2733738  91.4281866  69.7727169  77.2183358  92.4393924
  56.7311759  68.0617233  76.2491530  57.0265200  67.1527912  76.1958584
  55.8299794  68.0404973  75.9272533  68.6397837  79.7824497  83.0541939
  68.5148977  78.9814237  82.5452884  69.2976929  80.2770691  82.5655909
  60.2606006  66.1373230  82.2319079  59.5392591  66.7509198  82.0926552
  61.0499261  66.6730995  82.1535725  70.7032746  77.5833517  84.6821489
  69.7563081  77.4638869  84.6099816  71.0515519  76.6956015  84.7647750
  63.0632319  63.4727656  88.5059731  63.5866721  63.7189953  89.2686040
  62.8444653  64.3047691  88.0862868  58.4599600  65.7431331  76.3730855
  58.1312306  64.8628710  76.1905961  58.8138971  65.6879000  77.2607245
  67.7079179  77.3786234  80.8825841  67.5604142  76.4502941  81.0633411
  68.5332673  77.4006324  80.3982916  61.5741423  66.0304301  76.7406333
  61.9137496  66.5590222  76.0184942  62.0213544  66.3684707  77.5164900
  71.3113301  78.2014792  81.9690714  72.2359848  77.9957654  81.8315165
  71.1428604  77.9531193  82.8780055  64.2684864  64.4141351  86.1909401
  63.9281685  63.6149164  86.5930081  63.5623871  64.7143062  85.6186234
  64.9201336  61.4990664  84.6436724  65.7427405  61.0251142  84.5215615
  65.1639400  62.2781148  85.1435411  62.4439915  68.1909784  82.4528703
  62.2984496  68.5050088  83.3452984  61.9665118  68.8094685  81.8999601
  64.3036298  65.1812332  82.5009592  64.2897866  64.2853426  82.1641890
  65.0208726  65.1882996  83.1347878  66.1562428  65.6149673  84.5462720
  65.8980206  66.5366743  84.5447050  65.6247469  65.2180107  85.2363184
  71.1008617  78.7200460  77.3252805  71.2745495  78.1546882  76.5726658
  71.5937508  79.5201355  77.1432295  56.9185577  70.7315129  85.3916364
  56.3739045  71.5074937  85.5236638  57.7964927  71.0785933  85.2335485
  63.7073194  64.0626713  77.7697163  63.8289105  63.1343359  77.9688050
  63.4175236  64.0765399  76.8575478  66.5764384  61.7481623  80.9063882
  66.5986081  61.8120956  79.9515862  66.9932443  60.9086132  81.1004389
  76.9548008  71.4836883  78.9443105  77.3979154  70.7344208  78.5462228
  76.0774519  71.4747019  78.5616837  72.0883790  78.0367224  74.4249703
  72.7834694  78.6573917  74.6437018  72.4306940  77.1862575  74.7002081
  57.7051599  69.8585025  88.2846521  56.9633335  70.0067660  88.8711151
  57.3844343  70.1193291  87.4213270  73.9875213  75.4866930  75.9537034
  74.5126537  75.8254202  75.2286354  73.8997565  74.5513945  75.7700169
  65.6495262  79.4001003  88.0826911  65.9582388  79.1550150  88.9549610
  66.4470744  79.6047642  87.5945781  65.6715874  81.5538913  80.3132287
  65.2320864  81.0615292  81.0065144  66.4223991  81.0111881  80.0724363
  58.1508213  77.7450454  80.3156916  58.9766232  77.4454226  79.9355559
  57.8002265  76.9758076  80.7646704  63.1189746  77.0976922  82.3854589
  62.4969755  76.4347627  82.0856817  63.7894613  77.1238054  81.7028237
  56.3516818  75.6636780  81.2745849  55.5148726  75.2358955  81.0929850
  56.3240463  75.8569224  82.2116640  63.1914273  65.5758710  91.9787095
  63.2402429  66.4520833  91.5964865  63.7336787  65.0336103  91.4058738
  73.6769119  76.1199833  91.2588232  72.8864663  76.1023972  90.7192732
  73.4402473  76.6588127  92.0137269  73.7966994  72.9692300  88.5720961
  73.8464999  72.8042307  89.5136484  73.6880917  72.1019559  88.1818842
  62.6803253  75.6480845  75.8613050  62.8291373  76.3316310  75.2079722
  63.4869696  75.6285935  76.3762505  71.0870756  68.9523228  89.8880267
  71.9880619  68.8129693  89.5964265  71.1618731  69.1177683  90.8278445
  65.4213562  66.3290083  88.7333454  64.5516871  66.6223649  88.4616042
  65.6573042  66.9130528  89.4540717  75.2985191  75.3889241  88.8162982
  75.0069999  75.7519222  89.6526443  74.6857322  74.6756250  88.6376314
  76.4980873  72.9542121  81.3365553  77.3327764  73.3931925  81.5003113
  76.6340002  72.4780774  80.5173798  73.5472379  70.5121856  87.2843040
  74.0226501  70.7049502  86.4761892  72.6237944  70.5681042  87.0386424
  60.4355886  71.6746023  76.8674119  60.1901928  70.7708353  77.0654329
  60.6051800  71.6763173  75.9253597  68.1252595  62.5469699  86.2498874
  68.6434539  63.2830726  85.9245363  67.7707728  62.8533693  87.0845633
  59.7051533  67.4074381  74.3660280  59.0120778  67.4818736  73.7100316
  59.4603285  66.6434724  74.8881797  68.3765190  58.9669982  81.7699771
  68.6566943  58.2993171  82.3960197  69.1615797  59.1599078  81.2574435
  66.1798658  78.1428976  73.3324797  65.6072625  78.7619163  72.8795269
  66.7531452  78.6928338  73.8664719  72.2474048  67.3887616  85.5171346
  73.1991471  67.4885714  85.5383570  72.0777498  66.5965885  86.0269430
  70.2688427  64.4743199  85.7030747  69.6738360  64.7548212  85.0077235
  69.9838124  64.9637100  86.4747488  69.3995918  78.4266126  74.4633379
  70.3326591  78.3611688  74.6666255  69.3119131  79.2622393  74.0047912
  72.0283935  77.7431996  71.4237327  71.9497566  77.4091860  72.3173085
  72.8493601  78.2353764  71.4228799  74.7262126  70.6093736  84.6313646
  74.6938446  69.6709736  84.8173329  75.3362749  70.6877772  83.8979470
  74.8756614  67.4004779  84.6771929  74.3595663  66.6163236  84.4901858
  75.7596563  67.0723496  84.8418448  80.5438676  71.6709742  83.7719682
  81.2742064  71.4095031  84.3327386  79.9345621  70.9338464  83.8121750
  78.6253973  69.8117605  84.3694134  77.8987136  69.6773570  83.7610625
  78.2101260  70.1194434  85.1750852  66.4484149  73.5307535  92.1341507
  67.3687159  73.7086134  92.3281553  66.4133732  72.5863580  91.9821206
  55.6666314  68.7246128  81.0594781  55.3469099  67.8711437  80.7669155
  55.1199742  68.9394707  81.8152749  59.4446222  71.4408569  84.7764288
  59.6632232  72.3725677  84.7952322  59.8571996  71.0816544  85.5619092
  66.3650440  61.9476655  76.7639976  65.5551168  61.6023740  77.1395222
  67.0534856  61.6384198  77.3527588  68.2940988  61.0254702  78.3864273
  68.8472026  61.4450155  79.0454296  68.5311074  60.0990450  78.4287229
  64.3174087  67.0141775  94.1667037  64.2170814  67.9636132  94.0979128
  64.0995629  66.6860014  93.2943107  55.5354574  72.3449040  83.0287903
  54.8418046  71.9302993  82.5157857  56.2827565  72.3869576  82.4321322
  70.1223361  62.5360284  80.0964257  70.6223140  62.6476819  79.2878576
  70.7658969  62.2321337  80.7365066  64.1805357  70.4438914  92.9832098
  63.6972439  71.2439274  93.1895987  64.2666296  70.4546859  92.0299542
  57.4491317  72.2767294  80.9053918  57.4262005  72.3754981  79.9535801
  57.7591953  73.1232444  81.2271084  60.1078695  74.3343449  85.0200532
  61.0621948  74.3027391  84.9530464  59.9091218  73.8734072  85.8350758
  60.6978077  72.9044565  87.5871330  61.5170966  73.3988643  87.6106167
  60.9714884  71.9876533  87.5588897  58.4628923  79.8763068  82.0370730
  58.3283391  79.1163469  81.4708728  58.0460986  80.6003968  81.5699519
  69.5987886  75.0599992  71.0447305  70.3023737  75.2649994  71.6604961
  68.8750535  75.6276754  71.3096389  70.4285697  70.8109853  77.1649575
  70.3720898  71.2678404  76.3257208  70.9814039  70.0500538  76.9872418
  78.5502840  69.3395658  80.4970986  77.9902398  69.4088847  81.2702548
  77.9446344  69.1636643  79.7770483  61.6198049  80.7732385  82.2489173
  61.5030433  81.7177818  82.1467863  60.7990496  80.4705947  82.6374972
  71.1620476  72.0014634  74.4602105  71.1069280  71.8358906  73.5190549
  70.5366531  72.7090667  74.6164294  55.9512991  67.2382699  88.2863527
  56.5971855  66.7281653  88.7750752  55.7430142  67.9751380  88.8606952
  68.4766383  74.3063546  93.7855667  69.3457543  74.4804198  93.4242302
  67.9973135  75.1257963  93.6631397  62.6452563  81.4260647  85.4645101
  63.5479810  81.4584257  85.7811596  62.4189933  80.4961098  85.4791437
  64.4006165  80.1791634  82.1255180  63.4501796  80.1793495  82.0119552
  64.7038652  79.4324368  81.6091214  68.2868721  58.0965520  78.2933360
  67.5201117  57.5424007  78.4390042  68.6979426  58.1687389  79.1547511
  60.2910482  64.3850316  92.3838541  61.1541944  64.0287121  92.5941866
  59.7175893  64.0464211  93.0713945  80.1358859  86.0152172  83.1900942
  80.7737269  85.8958919  82.4864282  80.0179702  86.9633016  83.2488894
  76.9448565  85.9679600  83.1262467  76.6067077  85.8520665  82.2383002
  77.8138333  85.5670765  83.1063473  72.8035381  87.8215077  79.1159358
  72.2400246  87.7305014  78.3475645  72.6887776  87.0014981  79.5961850
  77.4268348  87.1214452  89.0848672  77.4156989  86.7267250  88.2129176
  77.5888988  86.3880524  89.6782444  70.3499813  89.3166268  81.9543578
  71.1421105  88.9757093  81.5389877  70.5896463  89.4261243  82.8745731
  78.3834940  91.4886044  74.4273823  77.7322919  92.0740125  74.0407836
  79.1779302  92.0192239  74.4868860  72.3090567  88.5775181  74.8260957
  73.0821443  88.0304169  74.6873833  72.6615966  89.4419431  75.0375418
  74.1475609  89.9051564  88.0327856  73.8565475  90.8097195  87.9174523
  74.7832594  89.9468091  88.7471926  75.0731816  87.2828412  84.6229216
  75.6695388  87.0584435  83.9086179  75.1306788  86.5413158  85.2254664
  74.6456845  84.7367848  72.4579407  74.8982365  84.2149369  71.6962870
  73.7081404  84.5733993  72.5606090  79.6900127  83.7403626  80.2654150
  80.4763217  83.3223049  79.9144567  79.9538832  84.6449718  80.4335798
  79.8610205  89.1776476  74.9642807  79.2256038  89.2511103  75.6763712
  79.5307611  89.7670075  74.2861886  85.0908555  83.6778859  81.1687129
  85.8233726  83.1078076  81.4024958  84.3347910  83.2900460  81.6093634
  74.3653133  86.6395953  74.6603782  74.2489391  85.9640857  75.3284866
  74.4755393  86.1528327  73.8435935  76.7084674  86.1006101  78.3650471
  76.3442881  85.5736722  79.0763393  77.5651790  85.7104570  78.1916956
  82.6133975  77.3900433  85.6281737  82.2817300  78.2595844  85.4042952
  82.0179588  77.0736717  86.3075768  76.3490161  81.1296000  73.3611820
  76.5164564  81.9976237  73.7282291  76.1587330  81.2923282  72.4373109
  79.1065494  89.5912979  85.0277650  78.8066217  90.4938018  84.9193457
  78.7616554  89.3245162  85.8798803  72.5577976  86.0426776  81.0614354
  71.6328472  85.9102990  81.2692046  72.8062389  86.8220995  81.5584297
  82.5062638  82.1095519  82.7075087  81.5979516  82.0410928  82.4133848
  82.4550234  82.5867464  83.5356913  76.3279382  83.5853658  74.3458486
  76.2079007  84.0310709  75.1843967  75.6331970  83.9338975  73.7872025
  69.9186787  85.6860050  81.8958143  70.0479168  85.9394529  82.8097555
  69.2384238  86.2787758  81.5762798  74.0886274  96.3557300  77.9948618
  74.0110304  97.3065125  78.0737098  73.4847918  96.0103172  78.6523544
  76.5803504  83.5285165  90.6509985  75.8036838  84.0879085  90.6412849
  77.2194067  84.0141948  91.1724855  84.3724285  80.3111958  84.4852961
  83.7298665  80.6044491  83.8392756  83.8679213  80.1964878  85.2906158
  82.0264448  84.0575131  75.1738820  82.9382304  84.2902518  74.9986518
  81.5174095  84.6412175  74.6113899  74.8349876  86.3370618  90.2127952
  75.5764561  86.8755662  89.9362775  74.1286862  86.9636907  90.3699503
  80.3105216  88.4799759  88.8100113  80.7188572  88.0382169  88.0654745
  79.5882477  87.9052386  89.0634306  76.6636286  83.4172366  86.1833670
  77.5097481  83.8411779  86.3268319  76.6034924  82.7605990  86.8772233
  80.6334031  89.0400949  82.5652402  80.0042893  89.2046664  81.8628470
  80.2459693  89.4542559  83.3363366  84.5123262  89.9755387  79.9196766
  83.8274301  90.3554289  79.3693799  84.5967112  90.5850714  80.6528713
  79.8135731  81.0776734  87.8414844  79.5696663  81.8318794  87.3049119
  80.0895662  81.4562082  88.6762091  81.7674194  87.6215346  86.5192109
  81.9791089  88.2647106  85.8426490  81.7203942  86.7877663  86.0514039
  79.3700423  80.2333167  83.4228681  78.5084902  80.5314421  83.7145419
  79.3962858  80.4503566  82.4909714  76.1861992  88.7775358  79.8302487
  76.6500338  89.0563060  79.0407109  75.9218791  87.8758802  79.6475578
  73.0786073  88.3246839  82.7682250  73.6487431  88.7534107  82.1299735
  73.6694185  88.0429424  83.4666436  75.1230878  84.8998510  76.6392052
  75.8254922  85.3519554  77.1065978  74.7911507  84.2582329  77.2671945
  73.5711240  83.4910267  91.0143262  72.9409901  84.1726547  91.2478658
  73.4647328  83.3793348  90.0696400  68.8656212  83.1582063  81.9409186
  68.0755266  83.4139591  81.4649296  69.3567460  83.9730400  82.0461226
  82.8820022  90.4987302  84.6914467  83.7037466  90.0967489  84.4097148
  82.8782425  90.3955536  85.6430582  70.8170958  83.5226642  78.8992662
  70.0202121  83.6345336  79.4176158  70.5896550  83.8613294  78.0333553
  76.6476625  90.0471345  86.8475177  76.7121058  90.5091752  87.6833349
  75.9387549  89.4168710  86.9757487  67.1493915  83.4112553  84.3724176
  67.4001954  84.2959563  84.6381752  67.6853464  83.2317155  83.5999268
  90.9726015  86.8426050  81.0399438  90.2189723  86.2733448  80.8843442
  91.1073556  86.8088715  81.9870073  76.3624643  91.7139453  76.7154157
  76.2270318  92.5590988  77.1439005  76.9034456  91.9158730  75.9520091
  72.8491983  77.7931032  93.3768513  72.4558928  77.2397231  94.0516157
  73.6658123  78.1041611  93.7675030  69.8154040  89.2314891  77.2882082
  70.3278561  90.0258141  77.4387647  70.4676753  88.5341181  77.2215684
  71.6248925  92.3480647  79.3704836  71.8015554  93.2698612  79.1825820
  72.4205759  92.0339066  79.7999215  75.7659944  79.2088911  90.9688769
  76.5069657  79.8096065  90.8893232  75.9977867  78.4666549  90.4106812
  70.9101282  84.3945279  89.2466999  70.7954797  83.4930536  89.5474098
  70.0545799  84.6408975  88.8951815  77.9893119  92.3363019  90.8454499
  77.5456974  91.5499398  90.5275404  78.6510333  92.5242170  90.1798390
  72.7480241  93.8658821  85.3715178  73.2987666  93.7375884  84.5992172
  71.9091717  94.1653710  85.0210071  80.0874358  92.6165819  88.8735901
  80.0692833  93.4374700  88.3816170  81.0094278  92.4919894  89.0986042
  76.5447412  90.1309948  89.7159409  77.0775749  89.3698237  89.4858717
  76.0161493  89.8383600  90.4583564  79.7117107  75.2370014  85.2453051
  79.3681376  76.1271656  85.1692161  80.0796069  75.0471672  84.3822636
  67.7802957  87.5603545  78.0641653  68.6178179  87.9700553  77.8475361
  67.9581225  86.6202987  78.0341847  79.6767389  85.2278625  73.7525486
  79.1614013  85.9983230  73.9913873  79.4044698  84.5543762  74.3758547
  77.2614500  80.0728326  78.8110724  76.4056097  79.6835177  78.6316363
  77.6741452  80.1520287  77.9510510  78.7913647  77.6074670  83.2102284
  78.2878443  77.5704805  82.3970089  79.0844254  78.5167412  83.2698941
  75.0356533  77.6913399  82.2168466  75.9009530  77.4956208  81.8574355
  75.1034042  77.4623751  83.1437823  84.6501664  87.9810980  75.6878659
  83.8731106  87.6422140  75.2433821  85.3293144  87.9863603  75.0133624
  79.4653693  83.1005718  75.5785267  79.1603828  83.4151867  76.4295410
  80.4184135  83.1787137  75.6212600  77.9100124  89.2595941  77.2278221
  77.3821486  88.5248700  76.9151459  77.4087627  90.0370617  76.9818189
  82.8892970  87.4544961  82.3445267  82.2316645  88.1444223  82.4325396
  83.6933370  87.8441393  82.6879254  72.6418852  79.9215607  79.5884833
  73.2162604  79.6990789  78.8558026  73.2289834  79.9904302  80.3413434
  81.6998429  85.8089334  80.3949209  82.2130311  86.4419326  80.8970919
  82.3499653  85.2090530  80.0292569  72.9688439  81.9520068  73.6080718
  72.1325751  82.2894755  73.9289993  72.8293209  81.8169048  72.6707855
  74.9441520  76.7956856  78.3159902  74.2905932  76.4805873  77.6916517
  74.9021994  76.1732597  79.0419725  76.0552725  87.0776151  70.2313194
  75.1479786  86.8465405  70.4304343  76.5523757  86.2813770  70.4187176
  78.9620803  95.7873658  73.1509880  78.2882502  96.0905355  73.7594838
  79.3486625  96.5902739  72.8015337  78.1779260  83.2838790  82.6407550
  77.2601821  83.5053737  82.4829238  78.5939404  83.3585100  81.7819257
  78.9614308  84.6830205  77.7710230  79.7086127  85.1951603  77.4617352
  79.2305897  84.3614258  78.6314623  77.2340958  87.1788746  74.7537184
  76.3252177  86.8947779  74.8509654  77.2636042  87.5987825  73.8940491
  82.4660225  90.7895336  78.5228352  82.0122553  89.9486245  78.5793542
  81.8354192  91.4256734  78.8603132  81.4093145  81.7187322  79.7529019
  80.6715902  81.2064708  80.0839262  81.6619919  81.2787703  78.9412296
  80.9093165  92.6271832  79.4578170  81.2016139  93.1876889  78.7390536
  81.4191785  92.9200393  80.2131329  81.5104772  74.4963574  80.3470788
  81.8163649  73.6360937  80.0596704  82.2357377  75.0881194  80.1469782
  67.8029128  84.8994260  78.7352386  67.6053528  84.3063621  78.0103453
  67.2475792  84.5946470  79.4528325  75.7825852  84.7917367  80.8546980
  75.8374462  83.8391203  80.7789456  74.9717054  84.9476806  81.3388278
  76.9317046  88.7197490  72.0925263  76.4936476  88.0033349  71.6330900
  77.6727487  88.9473605  71.5310354  73.7218212  83.4094426  78.6137358
  72.9086078  83.7088597  79.0202551  74.2177206  83.0150115  79.3311841
  75.8726790  93.4052183  80.5471623  75.8302969  93.6313030  79.6180155
  76.7889489  93.1715558  80.6957424  79.3192424  83.8736251  87.4452252
  79.6741811  84.1007724  88.3046718  79.9664555  84.2054628  86.8229508
  85.0490161  86.9954687  78.1501581  84.9108059  87.1856283  77.2222771
  84.6926379  87.7574070  78.6069632  73.2132287  80.9812782  84.2298593
  73.8531666  80.8401541  83.5321557  72.3809817  80.6947295  83.8537195
  85.0759540  89.0631214  83.1612853  85.5096047  88.9706503  84.0095907
  85.7891121  89.0388714  82.5232869  73.9892591  90.2815212  80.3433586
  74.7833189  89.7865532  80.1416161  73.2784283  89.7533075  79.9801291
  78.8087435  92.6633308  84.6945953  78.8624457  93.2324244  85.4623669
  77.9402216  92.8335193  84.3299991  70.2975354  84.4258294  76.4193339
  69.3672942  84.3642750  76.6363301  70.3932826  83.9034247  75.6229980
  70.2160903  80.9513107  79.0071580  70.4767720  81.8658440  78.8980741
  71.0378075  80.4837549  79.1568193  71.6885829  82.3650864  86.1770405
  72.3608882  82.1568226  85.5283054  70.8615615  82.1672950  85.7375637
  85.9375090  89.1054914  85.6945738  86.1310980  90.0100725  85.9405013
  85.8375708  88.6462333  86.5284323  77.5911401  78.9912805  88.1936066
  76.9439316  79.6902755  88.1000542  78.3612416  79.4248949  88.5612314
  80.9990198  89.2561657  91.2686619  80.8475705  89.0272209  90.3516703
  80.9894878  90.2132259  91.2817964  77.7675535  86.8293570  86.2532885
  78.6967595  86.9804730  86.0801853  77.3466565  86.9177591  85.3981532
  76.5663867  90.8544234  84.0231423  76.4274952  90.4863019  84.8957361
  75.7778463  91.3691874  83.8515381  77.1612019  95.9553331  75.3656959
  77.3363774  95.4841374  76.1802582  76.4744807  96.5819097  75.5938220
  78.1169082  90.2325837  81.4120261  77.7818914  90.1926607  82.3077911
  77.6173027  89.5670553  80.9390671  72.0913326  85.6393467  86.9372842
  71.9533124  84.9073706  87.5384381  73.0018249  85.5502367  86.6557030
  81.0528273  87.5781871  71.6857320  80.4357444  86.8528700  71.5890373
  80.5844762  88.3391232  71.3424395  74.7195626  85.3513426  86.4256522
  75.4295245  84.7106619  86.3843140  74.6764935  85.6026321  87.3482702
  82.7082405  92.2880780  89.3463101  82.6494951  91.6040000  88.6793684
  83.1101923  93.0299770  88.8943727  73.4324560  82.3378644  88.2452161
  72.8961917  81.8869383  88.8973757  72.8441269  82.4724553  87.5022625
  71.7273104  99.1042694  82.1396820  71.9669702  99.7361218  82.8175838
  70.8842300  98.7530734  82.4262179  72.8426819  81.7967296  70.8078625
  71.9656286  81.6756096  70.4440871  73.3184572  81.0053374  70.5557513
  82.7099812  90.2520364  87.5777080  81.8226591  89.9146285  87.7003479
  83.2798363  89.5203395  87.8145846  64.3628959  86.5844455  80.9020132
  65.0499999  86.2706185  80.3141147  64.2077088  87.4885820  80.6287383
  69.1663682  81.4734652  85.3305156  69.0821870  80.8660321  84.5955565
  68.3446388  81.9643670  85.3314652  76.2400966  94.9121816  84.5438324
  76.1671137  95.7176787  85.0557628  75.7978359  95.1113782  83.7186345
  76.0290745  94.1493586  78.0541145  75.2458267  94.6915266  78.1479370
  76.7283491  94.6667566  78.4535386  79.3387395  79.9588215  80.6975351
  79.8356095  79.2058178  80.3776421  78.5674377  79.9952532  80.1318560
  87.1917153  85.6628581  82.3393642  87.1807029  86.5453296  81.9687575
  86.3234532  85.3100132  82.1448179  78.6999649  94.8108650  86.6996482
  79.4127621  95.4456115  86.6272384  78.2089678  94.9072516  85.8836484
  80.4217176  88.7159903  78.2713774  79.4873455  88.8361365  78.1018478
  80.5993845  87.8132369  78.0073784  75.9222364  82.1005598  80.4247035
  75.5520152  81.5476639  81.1127941  76.4181457  81.4963732  79.8722035
  83.8089728  84.5577222  78.8063808  84.2750180  85.3905214  78.7324111
  84.2597228  84.0922204  79.5109067  73.7511563  92.5603093  87.5202053
  74.4521022  93.1939576  87.6731447  73.2806678  92.9017825  86.7597692
  81.8765959  90.9021043  75.8049960  82.1525803  90.7877638  76.7143834
  81.0070457  90.5038528  75.7662133  81.7806390  76.9257809  82.8454709
  80.8669470  77.1562036  83.0136916  82.2099492  77.0096253  83.6968742
  81.5512849  85.1147701  85.3454603  80.8984299  85.3623608  84.6907056
  81.9293229  84.3011839  85.0117081  78.5120023  95.1507394  79.4482774
  78.6942417  94.3329050  79.9110526  79.3353009  95.3675086  79.0107664
  78.8462188  94.0775579  76.7097822  79.3749955  93.5668034  76.0967984
  79.1090408  93.7618109  77.5743355  77.6000422  85.8567512  91.8320641
  76.9241059  85.7561641  92.5023016  78.4228056  85.7006726  92.2956638
  69.3479281  92.0939449  84.4533156  69.9332718  91.3483136  84.5861060
  69.1504119  92.4043405  85.3369820  72.2017936  95.1290696  79.4695598
  71.5328311  95.6136824  78.9859638  72.0630806  95.3759916  80.3838977
  63.9396936  84.6645049  83.1737599  63.9781035  84.1308639  83.9674717
  63.4337228  84.1380254  82.5548576  76.3423205  97.1634439  86.0678257
  76.8941513  97.3266061  86.8327342  76.6829398  97.7538877  85.3958281
  71.3187698  79.5109589  86.6700141  71.3829024  80.3724420  86.2577539
  71.2554818  78.8983591  85.9372500  70.7939970  81.5832722  90.3173175
  71.4212009  81.2009799  90.9310700  69.9367889  81.3646924  90.6828868
  67.5705513  83.3909151  76.2491530  67.8658954  82.4819829  76.1958584
  66.6693549  83.3696890  75.9272533  79.4791592  95.1116415  83.0541939
  79.3542731  94.3106155  82.5452884  80.1370683  95.6062608  82.5655909
  71.0999760  81.4665147  82.2319079  70.3786346  82.0801115  82.0926552
  71.8893016  82.0022912  82.1535725  81.5426500  92.9125435  84.6821489
  80.5956836  92.7930786  84.6099816  81.8909273  92.0247933  84.7647750
  73.9026074  78.8019574  88.5059731  74.4260476  79.0481871  89.2686040
  73.6838407  79.6339609  88.0862868  69.2993355  81.0723249  76.3730855
  68.9706061  80.1920627  76.1905961  69.6532725  81.0170917  77.2607245
  78.5472934  92.7078151  80.8825841  78.3997896  91.7794859  81.0633411
  79.3726427  92.7298242  80.3982916  72.4135178  81.3596218  76.7406333
  72.7531250  81.8882140  76.0184942  72.8607298  81.6976624  77.5164900
  82.1507055  93.5306710  81.9690714  83.0753603  93.3249571  81.8315165
  81.9822359  93.2823111  82.8780055  75.1078619  79.7433269  86.1909401
  74.7675439  78.9441082  86.5930081  74.4017625  80.0434980  85.6186234
  75.7595091  76.8282581  84.6436724  76.5821160  76.3543060  84.5215615
  76.0033154  77.6073065  85.1435411  74.4003325  79.8570840  74.9399626
  75.1211688  80.2352093  74.4363343  73.7768629  80.5759717  75.0434604
  78.5434448  80.5615989  75.8757958  78.7598062  81.4440627  75.5746786
  78.0628515  80.1702202  75.1463600  73.2833669  83.5201702  82.4528703
  73.1378250  83.8342005  83.3452984  72.8058873  84.1386602  81.8999601
  75.1430052  80.5104250  82.5009592  75.1291621  79.6145343  82.1641890
  75.8602480  80.5174914  83.1347878  76.9956183  80.9441590  84.5462720
  76.7373961  81.8658661  84.5447050  76.4641223  80.5472025  85.2363184
  81.9402372  94.0492377  77.3252805  82.1139249  93.4838800  76.5726658
  82.4331263  94.8493272  77.1432295  67.7579332  86.0607047  85.3916364
  67.2132800  86.8366854  85.5236638  68.6358681  86.4077851  85.2335485
  74.5466948  79.3918630  77.7697163  74.6682859  78.4635277  77.9688050
  74.2568991  79.4057316  76.8575478  77.4158139  77.0773541  80.9063882
  77.4379835  77.1412874  79.9515862  77.8326198  76.2378049  81.1004389
  87.7941763  86.8128800  78.9443105  88.2372909  86.0636126  78.5462228
  86.9168273  86.8038937  78.5616837  82.9277544  93.3659142  74.4249703
  83.6228449  93.9865835  74.6437018  83.2700694  92.5154493  74.7002081
  68.5445353  85.1876943  88.2846521  67.8027089  85.3359578  88.8711151
  68.2238098  85.4485208  87.4213270  84.8268967  90.8158847  75.9537034
  85.3520291  91.1546120  75.2286354  84.7391320  89.8805863  75.7700169
  76.4889016  94.7292921  88.0826911  76.7976142  94.4842068  88.9549610
  77.2864498  94.9339559  87.5945781  76.5109628  96.8830831  80.3132287
  76.0714618  96.3907209  81.0065144  77.2617745  96.3403798  80.0724363
  68.9901967  93.0742372  80.3156916  69.8159987  92.7746143  79.9355559
  68.6396019  92.3049994  80.7646704  73.9583500  92.4268840  82.3854589
  73.3363509  91.7639545  82.0856817  74.6288367  92.4529972  81.7028237
  67.1910572  90.9928698  81.2745849  66.3542480  90.5650872  81.0929850
  67.1634218  91.1861141  82.2116640  74.0308028  80.9050628  91.9787095
  74.0796183  81.7812751  91.5964865  74.5730542  80.3628021  91.4058738
  84.6360748  88.2984217  88.5720961  84.6858753  88.1334225  89.5136484
  84.5274672  87.4311476  88.1818842  73.5197007  90.9772763  75.8613050
  73.6685127  91.6608227  75.2079722  74.3263451  90.9577853  76.3762505
  81.9264511  84.2815145  89.8880267  82.8274374  84.1421610  89.5964265
  82.0012485  84.4469600  90.8278445  76.2607316  81.6582000  88.7333454
  75.3910626  81.9515566  88.4616042  76.4966797  82.2422445  89.4540717
  86.1378945  90.7181159  88.8162982  85.8463754  91.0811139  89.6526443
  85.5251077  90.0048167  88.6376314  87.3374628  88.2834039  81.3365553
  88.1721519  88.7223843  81.5003113  87.4733756  87.8072692  80.5173798
  84.3866134  85.8413774  87.2843040  84.8620255  86.0341420  86.4761892
  83.4631699  85.8972959  87.0386424  71.2749640  87.0037941  76.8674119
  71.0295682  86.1000271  77.0654329  71.4445555  87.0055091  75.9253597
  78.9646350  77.8761617  86.2498874  79.4828294  78.6122644  85.9245363
  78.6101483  78.1825610  87.0845633  70.5445288  82.7366298  74.3660280
  69.8514533  82.8110653  73.7100316  70.2997040  81.9726642  74.8881797
  79.2158944  74.2961900  81.7699771  79.4960698  73.6285089  82.3960197
  80.0009551  74.4890995  81.2574435  77.0192413  93.4720894  73.3324797
  76.4466380  94.0911081  72.8795269  77.5925206  94.0220255  73.8664719
  83.0867802  82.7179534  85.5171346  84.0385225  82.8177631  85.5383570
  82.9171253  81.9257802  86.0269430  81.1082182  79.8035117  85.7030747
  80.5132114  80.0840130  85.0077235  80.8231879  80.2929018  86.4747488
  80.2389672  93.7558044  74.4633379  81.1720346  93.6903605  74.6666255
  80.1512885  94.5914311  74.0047912  82.8677689  93.0723914  71.4237327
  82.7891321  92.7383778  72.3173085  83.6887356  93.5645682  71.4228799
  85.5655880  85.9385653  84.6313646  85.5332200  85.0001654  84.8173329
  86.1756504  86.0169690  83.8979470  77.4039211  84.8081706  70.6740850
  78.3498316  84.6787914  70.7429268  77.0253456  84.0696368  71.1510278
  85.7150369  82.7296697  84.6771929  85.1989417  81.9455153  84.4901858
  86.5990317  82.4015413  84.8418448  83.3761096  76.4737712  80.6367741
  83.1785917  76.1652801  81.5211073  83.9860801  77.1999351  80.7665671
  91.3832430  87.0001660  83.7719682  92.1135819  86.7386948  84.3327386
  90.7739376  86.2630382  83.8121750  89.4647727  85.1409523  84.3694134
  88.7380891  85.0065488  83.7610625  89.0495014  85.4486351  85.1750852
  77.2877904  88.8599452  92.1341507  78.2080913  89.0378051  92.3281553
  77.2527487  87.9155498  91.9821206  75.5882128  82.7331683  70.6095735
  74.6813584  82.4364795  70.6858448  75.8658109  82.4361501  69.7430021
  66.5060069  84.0538046  81.0594781  66.1862853  83.2003354  80.7669155
  65.9593497  84.2686624  81.8152749  70.2839976  86.7700487  84.7764288
  70.5025986  87.7017595  84.7952322  70.6965750  86.4108461  85.5619092
  77.2044194  77.2768572  76.7639976  76.3944922  76.9315657  77.1395222
  77.8928611  76.9676116  77.3527588  79.1334742  76.3546619  78.3864273
  79.6865781  76.7742073  79.0454296  79.3704829  75.4282367  78.4287229
  75.1567842  82.3433693  94.1667037  75.0564568  83.2928050  94.0979128
  74.9389384  82.0151932  93.2943107  74.3580913  79.5918618  70.7507714
  75.2200077  79.9173516  71.0103531  74.5431257  78.8050114  70.2380780
  66.3748329  87.6740958  83.0287903  65.6811800  87.2594910  82.5157857
  67.1221320  87.7161494  82.4321322  82.5113549  78.4647144  77.8942937
  81.9312218  79.1231948  77.5120989  82.2449482  77.6424489  77.4830354
  80.9617116  77.8652202  80.0964257  81.4616894  77.9768737  79.2878576
  81.6052724  77.5613255  80.7365066  75.0199112  85.7730832  92.9832098
  74.5366193  86.5731192  93.1895987  75.1060051  85.7838777  92.0299542
  68.2885071  87.6059211  80.9053918  68.2655759  87.7046899  79.9535801
  68.5985708  88.4524362  81.2271084  70.9472449  89.6635366  85.0200532
  71.9015703  89.6319309  84.9530464  70.7484973  89.2025990  85.8350758
  71.5371831  88.2336482  87.5871330  72.3564720  88.7280561  87.6106167
  71.8108639  87.3168451  87.5588897  81.2938427  80.6247235  76.9499285
  80.4064282  80.9096885  76.7319480  81.7092416  80.4640998  76.1026562
  84.6452964  80.6493756  80.6653624  85.4213354  81.1390208  80.9378241
  83.9201098  81.0751810  81.1225494  87.0825522  81.3621375  81.7227565
  87.6770013  81.1217111  81.0120873  87.1552106  80.6428506  82.3501101
  69.3022678  95.2054986  82.0370730  69.1677146  94.4455387  81.4708728
  68.8854740  95.9295886  81.5699519  80.4381641  90.3891909  71.0447305
  81.1417491  90.5941912  71.6604961  79.7144290  90.9568671  71.3096389
  81.2679451  86.1401771  77.1649575  81.2114653  86.5970322  76.3257208
  81.8207794  85.3792455  76.9872418  85.0784257  81.9291503  77.9899695
  84.8221191  81.5288138  78.8207903  84.4537125  82.6435296  77.8649834
  89.3896595  84.6687576  80.4970986  88.8296153  84.7380765  81.2702548
  88.7840098  84.4928560  79.7770483  72.4591804  96.1024303  82.2489173
  72.3424188  97.0469735  82.1467863  71.6384250  95.7997864  82.6374972
  82.3468338  90.8274439  73.0945765  83.1813942  90.3955637  72.9123240
  82.1852681  90.6556452  74.0222660  82.0014230  87.3306552  74.4602105
  81.9463034  87.1650823  73.5190549  81.3760286  88.0382585  74.6164294
  66.7906745  82.5674616  88.2863527  67.4365609  82.0573570  88.7750752
  66.5823897  83.3043298  88.8606952  75.3110356  76.8314661  74.0387423
  75.2989026  77.7756501  74.1955694  76.2033778  76.6484806  73.7446884
  73.4846318  96.7552565  85.4645101  74.3873565  96.7876175  85.7811596
  73.2583688  95.8253016  85.4791437  75.2399920  95.5083551  82.1255180
  74.2895551  95.5085413  82.0119552  75.5432406  94.7616286  81.6091214
  79.1262475  73.4257438  78.2933360  78.3594871  72.8715924  78.4390042
  79.5373180  73.4979306  79.1547511  71.1304236  79.7142233  92.3838541
  71.9935698  79.3579038  92.5941866  70.5569647  79.3756128  93.0713945
  83.6429135 103.1506994  79.1159358  83.0794000 103.0596931  78.3475645
  83.5281530 102.3306899  79.5961850  81.1893567 104.6458186  81.9543578
  81.9814859 104.3049010  81.5389877  81.4290217 104.7553161  82.8745731
  89.2228694 106.8177962  74.4273823  88.5716674 107.4032042  74.0407836
  90.0173057 107.3484157  74.4868860  83.1484321 103.9067099  74.8260957
  83.9215197 103.3596086  74.6873833  83.5009720 104.7711348  75.0375418
  85.4850599 100.0659765  72.4579407  85.7376120  99.5441286  71.6962870
  84.5475158  99.9025911  72.5606090  90.5293882  99.0695544  80.2654150
  91.3156971  98.6514967  79.9144567  90.7932586  99.9741636  80.4335798
  90.7003959 104.5068394  74.9642807  90.0649792 104.5803020  75.6763712
  90.3701366 105.0961993  74.2861886  85.2046888 101.9687871  74.6603782
  85.0883146 101.2932775  75.3284866  85.3149148 101.4820245  73.8435935
  87.5478429 101.4298018  78.3650471  87.1836636 100.9028639  79.0763393
  88.4045545 101.0396487  78.1916956  87.1883916  96.4587918  73.3611820
  87.3558318  97.3268154  73.7282291  86.9981085  96.6215200  72.4373109
  83.3971730 101.3718694  81.0614354  82.4722227 101.2394908  81.2692046
  83.6456144 102.1512913  81.5584297  87.1673137  98.9145575  74.3458486
  87.0472762  99.3602626  75.1843967  86.4725725  99.2630893  73.7872025
  80.7580541 101.0151967  81.8958143  80.8872923 101.2686446  82.8097555
  80.0777993 101.6079675  81.5762798  92.8658203  99.3867049  75.1738820
  93.7776059  99.6194435  74.9986518  92.3567850  99.9704093  74.6113899
  90.2094178  95.5625085  83.4228681  89.3478657  95.8606338  83.7145419
  90.2356612  95.7795484  82.4909714  87.0255747 104.1067275  79.8302487
  87.4894092 104.3854978  79.0407109  86.7612545 103.2050720  79.6475578
  85.9624633 100.2290428  76.6392052  86.6648676 100.6811471  77.1065978
  85.6305261  99.5874246  77.2671945  79.7049967  98.4873980  81.9409186
  78.9149021  98.7431509  81.4649296  80.1961214  99.3022318  82.0461226
  81.6564712  98.8518559  78.8992662  80.8595876  98.9637254  79.4176158
  81.4290305  99.1905212  78.0333553  77.9887670  98.7404471  84.3724176
  78.2395708  99.6251481  84.6381752  78.5247218  98.5609072  83.5999268
  87.2018398 107.0431370  76.7154157  87.0664072 107.8882906  77.1439005
  87.7428210 107.2450648  75.9520091  80.6547795 104.5606808  77.2882082
  81.1672316 105.3550058  77.4387647  81.3070508 103.8633099  77.2215684
  82.4642680 107.6772564  79.3704836  82.6409308 108.5990529  79.1825820
  83.2599513 107.3630984  79.7999215  90.5510861  90.5661932  85.2453051
  90.2075131  91.4563574  85.1692161  90.9189824  90.3763590  84.3822636
  78.6196712 102.8895463  78.0641653  79.4571934 103.2992471  77.8475361
  78.7974979 101.9494905  78.0341847  90.5161144 100.5570543  73.7525486
  90.0007767 101.3275148  73.9913873  90.2438452  99.8835679  74.3758547
  88.1008255  95.4020244  78.8110724  87.2449851  95.0127094  78.6316363
  88.5135207  95.4812205  77.9510510  89.6307402  92.9366587  83.2102284
  89.1272197  92.8996722  82.3970089  89.9238008  93.8459330  83.2698941
  85.8750287  93.0205317  82.2168466  86.7403284  92.8248126  81.8574355
  85.9427796  92.7915669  83.1437823  95.4895418 103.3102898  75.6878659
  94.7124861 102.9714057  75.2433821  96.1686899 103.3155521  75.0133624
  90.3047447  98.4297635  75.5785267  89.9997583  98.7443784  76.4295410
  91.2577889  98.5079055  75.6212600  88.7493879 104.5887859  77.2278221
  88.2215240 103.8540618  76.9151459  88.2481382 105.3662535  76.9818189
  83.4812607  95.2507525  79.5884833  84.0556358  95.0282706  78.8558026
  84.0683589  95.3196219  80.3413434  83.8082194  97.2811986  73.6080718
  82.9719506  97.6186672  73.9289993  83.6686963  97.1460966  72.6707855
  85.7835274  92.1248774  78.3159902  85.1299687  91.8097791  77.6916517
  85.7415748  91.5024514  79.0419725  86.8946479 102.4068069  70.2313194
  85.9873541 102.1757322  70.4304343  87.3917511 101.6105688  70.4187176
  89.0173015  98.6130707  82.6407550  88.0995576  98.8345654  82.4829238
  89.4333158  98.6877018  81.7819257  89.8008062 100.0122123  77.7710230
  90.5479881 100.5243520  77.4617352  90.0699652  99.6906176  78.6314623
  88.0734713 102.5080664  74.7537184  87.1645932 102.2239697  74.8509654
  88.1029796 102.9279742  73.8940491  92.2486899  97.0479239  79.7529019
  91.5109656  96.5356625  80.0839262  92.5013673  96.6079621  78.9412296
  92.3498527  89.8255491  80.3470788  92.6557404  88.9652855  80.0596704
  93.0751132  90.4173111  80.1469782  78.6422883 100.2286178  78.7352386
  78.4447283  99.6355539  78.0103453  78.0869547  99.9238388  79.4528325
  86.6219607 100.1209284  80.8546980  86.6768216  99.1683121  80.7789456
  85.8110809 100.2768723  81.3388278  87.7710800 104.0489407  72.0925263
  87.3330230 103.3325266  71.6330900  88.5121241 104.2765522  71.5310354
  84.5611966  98.7386344  78.6137358  83.7479832  99.0380515  79.0202551
  85.0570961  98.3442033  79.3311841  95.8883915 102.3246604  78.1501581
  95.7501814 102.5148200  77.2222771  95.5320134 103.0865987  78.6069632
  84.0526041  96.3104700  84.2298593  84.6925421  96.1693459  83.5321557
  83.2203572  96.0239213  83.8537195  84.8286345 105.6107130  80.3433586
  85.6226944 105.1157450  80.1416161  84.1178038 105.0824993  79.9801291
  81.1369109  99.7550212  76.4193339  80.2066697  99.6934667  76.6363301
  81.2326581  99.2326164  75.6229980  81.0554658  96.2805025  79.0071580
  81.3161475  97.1950358  78.8980741  81.8771830  95.8129467  79.1568193
  82.5279583  97.6942782  86.1770405  83.2002636  97.4860144  85.5283054
  81.7009370  97.4964868  85.7375637  91.8922028 102.9073789  71.6857320
  91.2751199 102.1820617  71.5890373  91.4238516 103.6683149  71.3424395
  83.6820574  97.1259213  70.8078625  82.8050040  97.0048014  70.4440871
  84.1578327  96.3345292  70.5557513  75.2022714 101.9136373  80.9020132
  75.8893754 101.5998103  80.3141147  75.0470843 102.8177738  80.6287383
  80.0057436  96.8026570  85.3305156  79.9215625  96.1952239  84.5955565
  79.1840143  97.2935588  85.3314652  90.1781150  95.2880133  80.6975351
  90.6749850  94.5350095  80.3776421  89.4068131  95.3244450  80.1318560
  91.2610931 104.0451820  78.2713774  90.3267209 104.1653283  78.1018478
  91.4387599 103.1424287  78.0073784  86.7616119  97.4297516  80.4247035
  86.3913906  96.8768557  81.1127941  87.2575211  96.8255650  79.8722035
  94.6483482  99.8869140  78.8063808  95.1143934 100.7197131  78.7324111
  95.0990983  99.4214121  79.5109067  92.7159713 106.2312961  75.8049960
  92.9919557 106.1169556  76.7143834  91.8464212 105.8330446  75.7662133
  92.6200145  92.2549727  82.8454709  91.7063225  92.4853953  83.0136916
  93.0493246  92.3388171  83.6968742  74.7790690  99.9936966  83.1737599
  74.8174790  99.4600557  83.9674717  74.2730983  99.4672172  82.5548576
  82.1581452  94.8401507  86.6700141  82.2222779  95.7016338  86.2577539
  82.0948573  94.2275509  85.9372500  78.4099268  98.7201069  76.2491530
  78.7052709  97.8111747  76.1958584  77.5087303  98.6988808  75.9272533
  81.9393515  96.7957065  82.2319079  81.2180100  97.4093033  82.0926552
  82.7286770  97.3314830  82.1535725  80.1387109  96.4015166  76.3730855
  79.8099815  95.5212545  76.1905961  80.4926480  96.3462835  77.2607245
  83.2528932  96.6888136  76.7406333  83.5925005  97.2174057  76.0184942
  83.7001053  97.0268542  77.5164900  85.9472373  95.0725187  86.1909401
  85.6069194  94.2733000  86.5930081  85.2411380  95.3726898  85.6186234
  86.5988845  92.1574499  84.6436724  87.4214914  91.6834977  84.5215615
  86.8426909  92.9364983  85.1435411  85.2397080  95.1862758  74.9399626
  85.9605442  95.5644010  74.4363343  84.6162384  95.9051634  75.0434604
  89.3828202  95.8907907  75.8757958  89.5991817  96.7732544  75.5746786
  88.9022270  95.4994120  75.1463600  84.1227424  98.8493620  82.4528703
  83.9772005  99.1633923  83.3452984  83.6452627  99.4678520  81.8999601
  85.9823807  95.8396168  82.5009592  85.9685375  94.9437261  82.1641890
  86.6996235  95.8466832  83.1347878  87.8349937  96.2733508  84.5462720
  87.5767715  97.1950579  84.5447050  87.3034978  95.8763943  85.2363184
  78.5973086 101.3898964  85.3916364  78.0526554 102.1658772  85.5236638
  79.4752436 101.7369769  85.2335485  85.3860703  94.7210548  77.7697163
  85.5076614  93.7927194  77.9688050  85.0962745  94.7349234  76.8575478
  88.2551893  92.4065459  80.9063882  88.2773590  92.4704792  79.9515862
  88.6719952  91.5669967  81.1004389  79.8295722 108.4034289  80.3156916
  80.6553741 108.1038061  79.9355559  79.4789774 107.6341912  80.7646704
  78.0304327 106.3220616  81.2745849  77.1936235 105.8942790  81.0929850
  78.0027972 106.5153059  82.2116640  84.3590762 106.3064681  75.8613050
  84.5078882 106.9900145  75.2079722  85.1657205 106.2869771  76.3762505
  82.1143395 102.3329858  76.8674119  81.8689437 101.4292188  77.0654329
  82.2839309 102.3347009  75.9253597  81.3839042  98.0658216  74.3660280
  80.6908287  98.1402571  73.7100316  81.1390794  97.3018560  74.8881797
  90.0552699  89.6253817  81.7699771  90.3354452  88.9577006  82.3960197
  90.8403306  89.8182913  81.2574435  87.8586167 108.8012811  73.3324797
  87.2860134 109.4202998  72.8795269  88.4318961 109.3512173  73.8664719
  88.2432966 100.1373624  70.6740850  89.1892070 100.0079832  70.7429268
  87.8647211  99.3988286  71.1510278  94.2154850  91.8029630  80.6367741
  94.0179671  91.4944718  81.5211073  94.8254556  92.5291269  80.7665671
  86.4275883  98.0623600  70.6095735  85.5207338  97.7656713  70.6858448
  86.7051864  97.7653418  69.7430021  77.3453823  99.3829964  81.0594781
  77.0256608  98.5295272  80.7669155  76.7987251  99.5978542  81.8152749
  88.0437949  92.6060490  76.7639976  87.2338677  92.2607575  77.1395222
  88.7322365  92.2968034  77.3527588  89.9728497  91.6838537  78.3864273
  90.5259535  92.1033990  79.0454296  90.2098583  90.7574285  78.4287229
  85.1974667  94.9210536  70.7507714  86.0593831  95.2465434  71.0103531
  85.3825012  94.1342031  70.2380780  77.2142083 103.0032875  83.0287903
  76.5205555 102.5886828  82.5157857  77.9615074 103.0453412  82.4321322
  93.3507304  93.7939062  77.8942937  92.7705973  94.4523866  77.5120989
  93.0843237  92.9716407  77.4830354  91.8010870  93.1944120  80.0964257
  92.3010649  93.3060654  79.2878576  92.4446478  92.8905173  80.7365066
  79.1278826 102.9351129  80.9053918  79.1049514 103.0338816  79.9535801
  79.4379462 103.7816280  81.2271084  92.1332182  95.9539152  76.9499285
  91.2458037  96.2388803  76.7319480  92.5486171  95.7932916  76.1026562
  95.4846718  95.9785673  80.6653624  96.2607108  96.4682126  80.9378241
  94.7594852  96.4043728  81.1225494  91.2775395 105.7183827  71.0447305
  91.9811245 105.9233830  71.6604961  90.5538044 106.2860589  71.3096389
  92.1073206 101.4693688  77.1649575  92.0508407 101.9262240  76.3257208
  92.6601548 100.7084373  76.9872418  95.9178012  97.2583420  77.9899695
  95.6614946  96.8580056  78.8207903  95.2930880  97.9727214  77.8649834
  93.1862093 106.1566356  73.0945765  94.0207697 105.7247555  72.9123240
  93.0246436 105.9848370  74.0222660  92.8407985 102.6598470  74.4602105
  92.7856789 102.4942741  73.5190549  92.2154040 103.3674503  74.6164294
  86.1504110  92.1606579  74.0387423  86.1382780  93.1048419  74.1955694
  87.0427532  91.9776724  73.7446884  89.9656230  88.7549355  78.2933360
  89.1988626  88.2007842  78.4390042  90.3766935  88.8271224  79.1547511
  36.7783842   1.7046624  69.9146249  37.4162252   1.5853371  69.2109589
  36.6604685   2.6527468  69.9734201  33.5873548   1.6574052  69.8507773
  33.2492060   1.5415117  68.9628308  34.4563317   1.2565217  69.8308780
  29.4460364   3.5109528  65.8404664  28.8825229   3.4199465  65.0720952
  29.3312759   2.6909433  66.3207157  34.0693331   2.8108904  75.8093979
  34.0581972   2.4161702  74.9374483  34.2313971   2.0774976  76.4027750
  26.9924796   5.0060720  68.6788885  27.7846088   4.6651545  68.2635184
  27.2321446   5.1155695  69.5991038  35.0259923   7.1780496  61.1519129
  34.3747903   7.7634577  60.7653143  35.8204286   7.7086691  61.2114167
  28.9515550   4.2669633  61.5506264  29.7246426   3.7198620  61.4119139
  29.3040949   5.1313883  61.7620725  30.7900593   5.5946016  74.7573163
  30.4990459   6.4991646  74.6419829  31.4257577   5.6362543  75.4717232
  31.7156799   2.9722864  71.3474523  32.3120372   2.7478886  70.6331485
  31.7731771   2.2307610  71.9499970  31.2881828   0.4262299  59.1824713
  31.5407349  -0.0956179  58.4208176  30.3506387   0.2628445  59.2851397
  36.3325111  -0.5701922  66.9899457  37.1188200  -0.9882499  66.6389874
  36.5963815   0.3344170  67.1581105  36.5035188   4.8670928  61.6888114
  35.8681021   4.9405555  62.4009018  36.1732594   5.4564527  61.0107193
  41.7333538  -0.6326689  67.8932435  42.4658710  -1.2027472  68.1270265
  40.9772894  -1.0205089  68.3338941  31.0078117   2.3290405  61.3849088
  30.8914375   1.6535309  62.0530173  31.1180376   1.8422779  60.5681241
  33.3509658   1.7900552  65.0895778  32.9867865   1.2631173  65.8008699
  34.2076773   1.3999022  64.9162263  39.2558958  -6.9205115  72.3527044
  38.9242283  -6.0509704  72.1288259  38.6604572  -7.2368831  73.0321074
  32.9915145  -3.1809548  60.0857126  33.1589547  -2.3129311  60.4527597
  32.8012314  -3.0182266  59.1618415  35.7490478   5.2807431  71.7522957
  35.4491201   6.1832470  71.6438764  35.4041537   5.0139614  72.6044109
  29.2002959   1.7321228  67.7859661  28.2753456   1.5997442  67.9937353
  29.4487372   2.5115447  68.2829603  39.1487621  -2.2010029  69.4320394
  38.2404499  -2.2694620  69.1379155  39.0975217  -1.7238084  70.2602219
  32.9704365  -0.7251890  61.0703793  32.8503991  -0.2794840  61.9089273
  32.2756954  -0.3766573  60.5117331  26.5611770   1.3754501  68.6203450
  26.6904151   1.6288980  69.5342862  25.8809222   1.9682209  68.3008105
  30.7311257  12.0451751  64.7193924  30.6535287  12.9959577  64.7982405
  30.1272901  11.6997624  65.3768851  33.2228487  -0.7820383  77.3755291
  32.4461821  -0.2226463  77.3658156  33.8619050  -0.2963600  77.8970161
  41.0149268  -3.9993590  71.2098268  40.3723648  -3.7061057  70.5638062
  40.5104196  -4.1140670  72.0151464  38.6689432  -0.2530417  61.8984127
  39.5807288  -0.0203030  61.7231825  38.1599079   0.3306627  61.3359206
  31.4774860   2.0265070  76.9373258  32.2189544   2.5650114  76.6608082
  30.7711845   2.6531359  77.0944810  36.9530199   4.1694211  75.5345420
  37.3613555   3.7276621  74.7900052  36.2307461   3.5946838  75.7879613
  33.3061269  -0.8933183  72.9078977  34.1522464  -0.4693769  73.0513626
  33.2459907  -1.5499558  73.6017540  37.2759014   4.7295401  69.2897709
  36.6467876   4.8941115  68.5873776  36.8884676   5.1437011  70.0608673
  41.1548246   5.6649839  66.6442072  40.4699284   6.0448741  66.0939106
  41.2392095   6.2745166  67.3774020  36.4560715  -3.2328814  74.5660150
  36.2121646  -2.4786754  74.0294426  36.7320645  -2.8543467  75.4007397
  38.4099177   3.3109798  73.2437416  38.6216073   3.9541558  72.5671797
  38.3628926   2.4772115  72.7759346  36.0125406  -4.0772381  70.1473988
  35.1509885  -3.7791128  70.4390726  36.0387841  -3.8601982  69.2155021
  32.8286976   4.4669809  66.5547794  33.2925321   4.7457512  65.7652416
  32.5643774   3.5653254  66.3720884  29.7211057   4.0141291  69.4927557
  30.2912414   4.4428559  68.8545041  30.3119169   3.7323876  70.1911743
  31.7655862   0.5892962  63.3637359  32.4679905   1.0414005  63.8311285
  31.4336490  -0.0523219  63.9917252  30.2136223  -0.8195282  77.7388568
  29.5834884  -0.1379001  77.9723965  30.1072311  -0.9312200  76.7941706
  39.5245005   6.1881754  71.4159773  40.3462449   5.7861941  71.1342455
  39.5207408   6.0849988  72.3675889  27.4595941  -0.7878906  65.6237969
  26.6627104  -0.6760212  66.1421465  27.2321533  -0.4492254  64.7578860
  33.2901609   5.7365797  73.5720484  33.3546041   6.1986204  74.4078656
  32.5812533   5.1063162  73.7002794  47.6150998   2.5320502  67.7644745
  46.8614707   1.9627900  67.6088749  47.7498540   2.4983167  68.7115379
  33.0049626   7.4033904  63.4399464  32.8695301   8.2485440  63.8684312
  33.5459439   7.6053182  62.6765398  26.4579024   4.9209342  64.0127389
  26.9703544   5.7152593  64.1632954  27.1101737   4.2235633  63.9460991
  28.2673908   8.0375099  66.0950142  28.4440537   8.9593063  65.9071126
  29.0630742   7.7233518  66.5244522  32.4084927  -5.1016637  77.6934076
  33.1494640  -4.5009484  77.6138538  32.6402850  -5.8438999  77.1352118
  27.5526265   0.0839731  75.9712305  27.4379780  -0.8175012  76.2719404
  26.6970783   0.3303427  75.6197122  34.6318103   8.0257471  77.5699806
  34.1881957   7.2393849  77.2520711  35.2935316   8.2136621  76.9043697
  29.3905224   9.5553272  72.0960485  29.9412649   9.4270336  71.3237479
  28.5516700   9.8548162  71.7455377  36.7299341   8.3060271  75.5981207
  36.7117816   9.1269152  75.1061477  37.6519261   8.1814346  75.8231349
  33.1872395   5.8204400  76.4404716  33.7200732   5.0592688  76.2104024
  32.6586476   5.5278052  77.1828870  24.4227941   3.2497997  64.7886960
  25.2603163   3.6595005  64.5720667  24.6006208   2.3097439  64.7587153
  36.3192373   0.9173077  60.4770793  35.8038996   1.6877682  60.7159180
  36.0469681   0.2438214  61.1003854  33.9039484  -4.2377222  65.5356031
  33.0481080  -4.6270371  65.3561670  34.3166435  -4.1585261  64.6755816
  35.4338630  -6.7030879  69.9347591  34.9303426  -6.7400743  69.1215396
  35.7269237  -5.7938136  69.9944247  41.2926647   3.6705432  62.4123966
  40.5156090   3.3316592  61.9679128  41.9718128   3.6758055  61.7378931
  36.1078676  -1.2099831  62.3030574  35.8028811  -0.8953681  63.1540717
  37.0609118  -1.1318411  62.3457907  34.5525108   4.9490393  63.9523528
  34.0246469   4.2143152  63.6396765  34.0512610   5.7265069  63.7063496
  39.5317954   3.1439413  69.0690574  38.8741628   3.8338675  69.1570703
  40.3358353   3.5335845  69.4124560  38.3423413   1.4983786  67.1194516
  38.8555294   2.1313778  67.6216226  38.9924636   0.8984981  66.7537876
  29.6113422  -2.3585480  60.3326025  28.7750735  -2.0210793  60.6535299
  29.4718192  -2.4936500  59.3953161  32.6977708   2.7670603  56.9558501
  31.7904770   2.5359857  57.1549650  33.1948740   1.9708222  57.1432482
  35.6045787  11.4768110  59.8755187  34.9307486  11.7799807  60.4840145
  35.9911609  12.2797191  59.5260644  34.8204243  -1.0266758  69.3652856
  33.9026805  -0.8051811  69.2074544  35.2364387  -0.9520448  68.5064564
  35.6039291   0.3724657  64.4955537  36.3511110   0.8846054  64.1862659
  35.8730881   0.0508710  65.3559930  33.8765941   2.8683198  61.4782491
  32.9677161   2.5842231  61.5754961  33.9061025   3.2882276  60.6185798
  39.1085209   6.4789787  65.2473658  38.6547536   5.6380697  65.3038849
  38.4779175   7.1151186  65.5848439  38.0518128  -2.5918227  66.4774326
  37.3140885  -3.1040840  66.8084568  38.3044902  -3.0317845  65.6657603
  37.5518148   8.3166284  66.1823477  37.8441122   8.8771341  65.4635842
  38.0616769   8.6094845  66.9376636  24.4454112   0.5888712  65.4597693
  24.2478512  -0.0041927  64.7348760  23.8900776   0.2840922  66.1773632
  32.4250835   0.4811819  67.5792286  32.4799445  -0.4714345  67.5034763
  31.6142037   0.6371258  68.0633585  33.5742029   4.4091942  58.8170569
  33.1361459   3.6927801  58.3576207  34.3152470   4.6368056  58.2555661
  30.3643195  -0.9011122  65.3382665  29.5511061  -0.6016951  65.7447857
  30.8602189  -1.2955433  66.0557147  32.5151773   9.0946635  67.2716930
  32.4727952   9.3207482  66.3425462  33.4314472   8.8610010  67.4202731
  35.9617407  -0.4369297  74.1697559  36.3166795  -0.2097824  75.0292025
  36.6089538  -0.1050920  73.5474814  41.6915144   2.6849139  64.8746888
  41.5533043   2.8750735  63.9468077  41.3351363   3.4468521  65.3314939
  41.7184524   4.7525666  69.8858160  42.1521030   4.6600955  70.7341214
  42.4316104   4.7283166  69.2478176  30.6317574   5.9709664  67.0678892
  31.4258172   5.4759984  66.8661467  29.9209266   5.4427527  66.7046598
  35.4512418   8.3527760  71.4191260  35.5049441   8.9218696  72.1868976
  34.5827200   8.5229645  71.0545297  26.9400337   0.1152746  63.1438645
  26.0097926   0.0537201  63.3608607  27.0357809  -0.4071301  62.3475286
  28.3310812  -1.9454684  72.9015711  29.0033865  -2.1537322  72.2528360
  27.5040598  -2.1432598  72.4620944  42.5800073   4.7949366  72.4191045
  42.7735963   5.6995177  72.6650320  42.4800691   4.3356785  73.2529630
  34.2336384  -5.3192743  74.9181372  33.5864299  -4.6202793  74.8245849
  35.0037399  -4.8856599  75.2857620  37.6415182   4.9456109  77.9931926
  37.4900688   4.7166661  77.0762009  37.6319861   5.9026710  78.0063271
  34.4100518   2.5188022  72.9778192  35.3392578   2.6699181  72.8047159
  33.9891548   2.6072043  72.1226838  33.2088850   6.5438686  70.7476730
  33.0699936   6.1757471  71.6202668  32.4203446   7.0586326  70.5760687
  33.8037002  11.6447783  62.0902266  33.9788758  11.1735826  62.9047889
  33.1169790  12.2713549  62.3183527  34.7594065   5.9220289  68.1365567
  34.4243898   5.8821059  69.0323217  34.2598011   5.2565005  67.6635978
  28.7338309   1.3287919  73.6618149  28.5958107   0.5968158  74.2629688
  29.6443233   1.2396819  73.3802336  37.6953257   3.2676323  58.4102627
  37.0782427   2.5423151  58.3135680  37.2269745   4.0285684  58.0669701
  31.3620610   1.0407878  73.1501828  32.0720228   0.4001070  73.1088447
  31.3189918   1.2920773  74.0728009  39.3507388   7.9775232  76.0708407
  39.2919935   7.2934452  75.4038990  39.7526907   8.7194222  75.6189033
  30.0749544  -1.9726904  74.9697468  29.5386901  -2.4236165  75.6219064
  29.4866252  -1.8380995  74.2267932  28.3698087  14.7937145  68.8642126
  28.6094685  15.4255670  69.5421145  27.5267284  14.4425185  69.1507486
  29.4851803  -2.5138252  57.5323931  28.6081269  -2.6349452  57.1686178
  29.9609556  -3.3052174  57.2802820  39.3524796   5.9414816  74.3022387
  38.4651574   5.6040737  74.4248786  39.9223347   5.2097847  74.5391152
  21.0053943   2.2738907  67.6265438  21.6924983   1.9600637  67.0386454
  20.8502071   3.1780272  67.3532690  32.8825949  10.6016268  71.2683630
  32.8096121  11.4071239  71.7802935  32.4403342  10.8008234  70.4431652
  32.6715729   9.8388038  64.7786452  31.8883251  10.3809718  64.8724676
  33.3708474  10.3562018  65.1780693  35.9812379  -4.3517333  67.4220657
  36.4781078  -5.1047370  67.1021727  35.2099360  -4.3153016  66.8563867
  43.8342136   1.3523033  69.0638949  43.8232012   2.2347748  68.6932882
  42.9659516   0.9994584  68.8693486  35.3424633  10.5003102  73.4241789
  36.0552605  11.1350567  73.3517690  34.8514661  10.5966968  72.6081791
  37.0642159   4.4054355  64.9959081  36.1298438   4.5255817  64.8263785
  37.2418828   3.5026821  64.7319090  32.5647348  -2.2099950  67.1492342
  32.1945135  -2.7628909  67.8373247  33.0606440  -2.8141816  66.5967342
  40.4514711   0.2471674  65.5309115  40.9175163   1.0799665  65.4569417
  40.9022211  -0.2183345  66.2354373  30.3936546   8.2497545  74.2447360
  31.0946006   8.8834028  74.3976754  29.9231661   8.5912277  73.4842999
  38.5190942   6.5915495  62.5295267  38.7950786   6.4772090  63.4389141
  37.6495441   6.1932980  62.4907440  38.4231374  -7.3847739  69.5700016
  37.5094453  -7.1543512  69.7382223  38.8524475  -7.3009295  70.4214048
  38.1937832   0.8042153  72.0699910  37.5409282   1.0518060  71.4152363
  38.5718212  -0.0093709  71.7362387  35.1545006  10.8401846  66.1728080
  35.3367400  10.0223502  66.6355833  35.9777992  11.0569538  65.7352970
  35.4887171   9.7670031  63.4343129  36.0174938   9.2562486  62.8213291
  35.7515391   9.4512561  64.2988662  34.2425405   1.5461964  78.5565947
  33.5666042   1.4456093  79.2268322  35.0653039   1.3901178  79.0201944
  25.9904264   7.7833900  71.1778462  26.5757701   7.0377588  71.3106367
  25.7929103   8.0937857  72.0615126  28.8442919  10.8185148  66.1940905
  28.1753295  11.3031275  65.7104945  28.7055789  11.0654368  67.1084283
  32.9848188  12.8528891  72.7923563  33.5366496  13.0160513  73.5572648
  33.3254381  13.4433329  72.1203588  37.8359062   7.6790149  78.6472218
  38.3798966   8.2920107  78.1527172  37.2545907   8.2369727  79.1639231
  36.1216575  10.8010867  69.7787245  35.9967715  10.0000607  69.2698191
  36.7795666  11.2957060  69.2901215  38.1851484   8.6019887  71.4066795
  37.2381819   8.4825238  71.3345122  38.5334257   7.7142385  71.4893057
  35.1897917   8.3972603  67.6071148  35.0422879   7.4689311  67.7878718
  36.0151410   8.4192694  67.1228223  29.0560161  -2.9509330  63.4651640
  29.3956234  -2.4223409  62.7430248  29.5032282  -2.6128924  64.2410206
  38.7932039   9.2201162  68.6936020  39.7178586   9.0144023  68.5560472
  38.6247342   8.9717563  69.6025362  31.0428308  -4.4534708  61.6644933
  31.7636671  -4.0753455  61.1608649  30.4193613  -3.7345831  61.7679910
  35.1859431  -3.7489559  62.6003265  35.4023046  -2.8664921  62.2992093
  34.7053498  -4.1403346  61.8708907  29.9258653  -0.7903846  69.1774009
  29.7803233  -0.4763543  70.0698291  29.4483856  -0.1718946  68.6244908
  31.7855036  -3.8001298  69.2254899  31.7716604  -4.6960205  68.8887197
  32.5027464  -3.7930634  69.8593185  33.6381166  -3.3663958  71.2708026
  33.3798944  -2.4446887  71.2692357  33.1066207  -3.7633523  71.9608491
  38.5827355   9.7386829  64.0498112  38.7564233   9.1733252  63.2971964
  39.0756246  10.5387724  63.8677602  24.4004315   1.7501498  72.1161671
  23.8557783   2.5261306  72.2481945  25.2783665   2.0972303  71.9580792
  44.4366746   2.5023252  65.6688412  44.8797892   1.7530577  65.2707535
  43.5593256   2.4933389  65.2862144  39.5702527   9.0553594  61.1495010
  40.2653432   9.6760286  61.3682325  39.9125678   8.2048945  61.4247388
  25.1870337   0.8771395  75.0091828  24.4452073   1.0254030  75.5956458
  24.8663081   1.1379660  74.1458577  41.4693951   6.5053299  62.6782341
  41.9945275   6.8440572  61.9531661  41.3816303   5.5700315  62.4945476
  33.1313999  10.4187373  74.8072218  33.4401126  10.1736520  75.6794917
  33.9289481  10.6234011  74.3191088  33.1534611  12.5725283  67.0377594
  32.7139602  12.0801661  67.7310451  33.9042728  12.0298250  66.7969669
  25.6326950   8.7636823  67.0402222  26.4584970   8.4640595  66.6600866
  25.2821002   7.9944446  67.4892011  30.6008484   8.1163292  69.1099896
  29.9788493   7.4533997  68.8102124  31.2713350   8.1424424  68.4273544
  23.8335555   6.6823150  67.9991156  22.9967464   6.2545324  67.8175157
  23.8059201   6.8755593  68.9361947  41.1587857   7.1386203  77.9833539
  40.3683400   7.1210342  77.4438038  40.9221211   7.6774497  78.7382575
  41.2785732   3.9878669  75.2966267  41.3283737   3.8228677  76.2381790
  41.1699655   3.1205928  74.9064148  30.1621990   6.6667215  62.5858356
  30.3110111   7.3502679  61.9325029  30.9688434   6.6472305  63.1007812
  38.5689494  -0.0290403  76.6125574  39.4699357  -0.1683938  76.3209572
  38.6437469   0.1364052  77.5523752  32.9032299  -2.6523548  75.4578760
  32.0335609  -2.3589982  75.1861349  33.1391780  -2.0683103  76.1786024
  42.7803929   6.4075611  75.5408289  42.4888737   6.7705591  76.3771750
  42.1676060   5.6942619  75.3621621  43.9799611   3.9728491  68.0610859
  44.8146502   4.4118295  68.2248420  44.1158740   3.4967144  67.2419105
  41.0291117   1.5308225  74.0088347  41.5045238   1.7235872  73.2007198
  40.1056682   1.5867411  73.7631731  27.9174623   2.6932393  63.5919425
  27.6720665   1.7894723  63.7899635  28.0870538   2.6949543  62.6498903
  35.6071333  -6.4343931  72.9744181  36.1253277  -5.6982904  72.6490669
  35.2526466  -6.1279938  73.8090940  33.6617396   9.1615345  60.0570104
  33.0891363   9.7805533  59.6040576  34.2350190   9.7114707  60.5910026
  39.7292786  -1.5926014  72.2416653  40.6810209  -1.4927917  72.2628877
  39.5596236  -2.3847746  72.7514737  37.7507165  -4.5070431  72.4276053
  37.1557097  -4.2265419  71.7322542  37.4656862  -4.0176530  73.1992795
  36.8814656   9.4452496  61.1878686  37.8145329   9.3798057  61.3911562
  36.7937869  10.2808762  60.7293219  39.5102672   8.7618366  58.1482634
  39.4316304   8.4278230  59.0418391  40.3312339   9.2540134  58.1474106
  42.2080864   1.6280105  71.3558952  42.1757184   0.6896106  71.5418636
  42.8181487   1.7064142  70.6224777  34.0464194   0.4976158  57.3986156
  34.9923299   0.3682366  57.4674574  33.6678439  -0.2409180  57.8755584
  42.3575352  -1.5808851  71.4017235  41.8414401  -2.3650395  71.2147164
  43.2415301  -1.9090135  71.5663755  40.0186079  -7.8367836  67.3613048
  39.8210900  -8.1452748  68.2456380  40.6285785  -7.1106197  67.4910978
  48.0257413   2.6896112  70.4964989  48.7560802   2.4281400  71.0572692
  47.4164359   1.9524834  70.5367057  46.1072711   0.8303975  71.0939440
  45.3805874   0.6959940  70.4855932  45.6919997   1.1380803  71.8996158
  33.9302887   4.5493904  78.8586813  34.8505896   4.7272503  79.0526860
  33.8952470   3.6049950  78.7066512  32.2307112  -1.5773865  57.3341041
  31.3238567  -1.8740753  57.4103755  32.5083093  -1.8744047  56.4675328
  26.9264960   2.4594939  71.5009594  27.1450969   3.3912047  71.5197628
  27.3390733   2.1002913  72.2864398  23.0173312   3.3635409  69.7533209
  22.3236783   2.9489362  69.2403164  23.7646303   3.4055946  69.1566628
  39.1538533  -5.8458404  64.6188244  38.5737202  -5.1873600  64.2366296
  38.8874465  -6.6681059  64.2075661  37.6042099  -6.4453346  66.8209564
  38.1041877  -6.3336812  66.0123883  38.2477707  -6.7492293  67.4610372
  31.6624095   1.4625284  79.7077405  31.1791177   2.2625644  79.9141294
  31.7485034   1.4733228  78.7544849  24.9310055   3.2953663  67.6299224
  24.9080743   3.3941351  66.6781107  25.2410691   4.1418814  67.9516390
  27.5897432   5.3529818  71.7445839  28.5440686   5.3213761  71.6775770
  27.3909956   4.8920442  72.5596065  28.1796815   3.9230934  74.3116636
  28.9989703   4.4175013  74.3351474  28.4533622   3.0062902  74.2834204
  37.9363411  -3.6858313  63.6744592  37.0489266  -3.4008663  63.4564787
  38.3517400  -3.8464550  62.8271869  41.2877947  -3.6611792  67.3898931
  42.0638337  -3.1715340  67.6623548  40.5626081  -3.2353738  67.8470801
  43.7250505  -2.9484173  68.4472872  44.3194996  -3.1888437  67.7366180
  43.7977089  -3.6677043  69.0746408  25.9447661  10.8949438  68.7616037
  25.8102129  10.1349839  68.1954035  25.5279723  11.6190338  68.2944825
  37.0806624   6.0786361  57.7692612  37.7842474   6.2836364  58.3850267
  36.3569273   6.6463123  58.0341695  37.9104434   1.8296223  63.8894882
  37.8539636   2.2864774  63.0502514  38.4632777   1.0686907  63.7117725
  41.7209240  -2.3814046  64.7145002  41.4646175  -2.7817410  65.5453209
  41.0962108  -1.6670252  64.5895141  46.0321578   0.3582028  67.2216293
  45.4721136   0.4275217  67.9947855  45.4265082   0.1823012  66.5015789
  29.1016787  11.7918755  68.9734479  28.9849171  12.7364187  68.8713169
  28.2809233  11.4892316  69.3620278  38.9893322   6.5168891  59.8191072
  39.8238926   6.0850089  59.6368547  38.8277665   6.3450904  60.7467966
  38.6439214   3.0201004  61.1847411  38.5888018   2.8545275  60.2435855
  38.0185269   3.7277037  61.3409601  35.9585121   5.3249916  80.5100974
  36.8276281   5.4990568  80.1487609  35.4791872   6.1444333  80.3876703
  30.1271301  12.4447017  72.1890408  31.0298548  12.4770627  72.5056903
  29.9008671  11.5147468  72.2036743  31.8824903  11.1978003  68.8500486
  30.9320534  11.1979865  68.7364859  32.1857389  10.4510738  68.3336521
  47.6177597  17.0338542  69.9146249  48.2556007  16.9145289  69.2109589
  47.4998440  17.9819386  69.9734201  44.4267303  16.9865970  69.8507773
  44.0885814  16.8707034  68.9628308  45.2957071  16.5857135  69.8308780
  40.2854119  18.8401446  65.8404664  39.7218984  18.7491383  65.0720952
  40.1706514  18.0201351  66.3207157  44.9087086  18.1400821  75.8093979
  44.8975727  17.7453620  74.9374483  45.0707725  17.4066894  76.4027750
  37.8318551  20.3352638  68.6788885  38.6239843  19.9943462  68.2635184
  38.0715201  20.4447613  69.5991038  45.8653677  22.5072414  61.1519129
  45.2141657  23.0926494  60.7653143  46.6598040  23.0378609  61.2114167
  39.7909305  19.5961551  61.5506264  40.5640181  19.0490538  61.4119139
  40.1434703  20.4605800  61.7620725  41.6294347  20.9237933  74.7573163
  41.3384213  21.8283564  74.6419829  42.2651331  20.9654461  75.4717232
  42.5550554  18.3014782  71.3474523  43.1514126  18.0770804  70.6331485
  42.6125525  17.5599527  71.9499970  42.1275582  15.7554217  59.1824713
  42.3801103  15.2335738  58.4208176  41.1900141  15.5920363  59.2851397
  47.1718865  14.7589995  66.9899457  47.9581954  14.3409419  66.6389874
  47.4357569  15.6636088  67.1581105  47.3428943  20.1962846  61.6888114
  46.7074775  20.2697472  62.4009018  47.0126349  20.7856445  61.0107193
  52.5727292  14.6965229  67.8932435  53.3052464  14.1264445  68.1270265
  51.8166648  14.3086829  68.3338941  41.8471871  17.6582323  61.3849088
  41.7308129  16.9827226  62.0530173  41.9574131  17.1714697  60.5681241
  44.1903412  17.1192470  65.0895778  43.8261619  16.5923091  65.8008699
  45.0470528  16.7290939  64.9162263  50.0952713   8.4086803  72.3527044
  49.7636037   9.2782214  72.1288259  49.4998326   8.0923087  73.0321074
  43.8308899  12.1482370  60.0857126  43.9983301  13.0162606  60.4527597
  43.6406068  12.3109652  59.1618415  46.5884232  20.6099349  71.7522957
  46.2884955  21.5124388  71.6438764  46.2435292  20.3431532  72.6044109
  40.0396714  17.0613146  67.7859661  39.1147210  16.9289360  67.9937353
  40.2881127  17.8407365  68.2829603  49.9881376  13.1281889  69.4320394
  49.0798253  13.0597297  69.1379155  49.9368972  13.6053834  70.2602219
  43.8098120  14.6040027  61.0703793  43.6897745  15.0497078  61.9089273
  43.1150708  14.9525345  60.5117331  37.4005525  16.7046419  68.6203450
  37.5297906  16.9580898  69.5342862  36.7202976  17.2974127  68.3008105
  41.5705012  27.3743669  64.7193924  41.4929042  28.3251494  64.7982405
  40.9666656  27.0289542  65.3768851  44.0622242  14.5471535  77.3755291
  43.2855576  15.1065455  77.3658156  44.7012805  15.0328318  77.8970161
  51.8543022  11.3298327  71.2098268  51.2117403  11.6230861  70.5638062
  51.3497951  11.2151248  72.0151464  49.5083186  15.0761501  61.8984127
  50.4201042  15.3088887  61.7231825  48.9992833  15.6598545  61.3359206
  42.3168614  17.3556988  76.9373258  43.0583298  17.8942032  76.6608082
  41.6105600  17.9823277  77.0944810  47.7923954  19.4986128  75.5345420
  48.2007310  19.0568539  74.7900052  47.0701215  18.9238756  75.7879613
  44.1455024  14.4358735  72.9078977  44.9916219  14.8598149  73.0513626
  44.0853661  13.7792359  73.6017540  48.1152768  20.0587319  69.2897709
  47.4861631  20.2233033  68.5873776  47.7278430  20.4728929  70.0608673
  51.9942000  20.9941757  66.6442072  51.3093038  21.3740658  66.0939106
  52.0785850  21.6037083  67.3774020  47.2954469  12.0963103  74.5660150
  47.0515401  12.8505164  74.0294426  47.5714400  12.4748451  75.4007397
  49.2492932  18.6401716  73.2437416  49.4609827  19.2833476  72.5671797
  49.2022680  17.8064032  72.7759346  46.8519161  11.2519537  70.1473988
  45.9903640  11.5500790  70.4390726  46.8781595  11.4689935  69.2155021
  43.6680730  19.7961727  66.5547794  44.1319076  20.0749430  65.7652416
  43.4037528  18.8945172  66.3720884  40.5604811  19.3433209  69.4927557
  41.1306168  19.7720477  68.8545041  41.1512923  19.0615793  70.1911743
  42.6049616  15.9184879  63.3637359  43.3073660  16.3705923  63.8311285
  42.2730245  15.2768698  63.9917252  41.0529978  14.5096636  77.7388568
  40.4228638  15.1912917  77.9723965  40.9466066  14.3979718  76.7941706
  36.3474950  14.1768432  68.6654492  35.5574004  14.4325961  68.1894603
  36.8386198  14.9916770  68.7706533  50.3638760  21.5173671  71.4159773
  51.1856204  21.1153859  71.1342455  50.3601163  21.4141905  72.3675889
  38.2989696  14.5413011  65.6237969  37.5020859  14.6531706  66.1421465
  38.0715288  14.8799664  64.7578860  44.1295363  21.0657715  73.5720484
  44.1939796  21.5278122  74.4078656  43.4206287  20.4355079  73.7002794
  34.6312653  14.4298923  71.0969483  34.8820692  15.3145932  71.3627059
  35.1672202  14.2503524  70.3244575  58.4544753  17.8612420  67.7644745
  57.7008461  17.2919818  67.6088749  58.5892294  17.8275084  68.7115379
  43.8443381  22.7325822  63.4399464  43.7089056  23.5777358  63.8684312
  44.3853193  22.9345100  62.6765398  40.3310721   8.8117402  80.1013819
  39.9377666   8.2583600  80.7761463  41.1476861   9.1227980  80.4920337
  37.2972778  20.2501260  64.0127389  37.8097299  21.0444510  64.1632954
  37.9495491  19.5527551  63.9460991  39.1067663  23.3667016  66.0950142
  39.2834291  24.2884981  65.9071126  39.9024497  23.0525436  66.5244522
  43.2478682  10.2275281  77.6934076  43.9888395  10.8282434  77.6138538
  43.4796604   9.4852919  77.1352118  38.3920020  15.4131648  75.9712305
  38.2773535  14.5116906  76.2719404  37.5364537  15.6595345  75.6197122
  45.4711857  23.3549389  77.5699806  45.0275711  22.5685767  77.2520711
  46.1329071  23.5428539  76.9043697  40.2298978  24.8845190  72.0960485
  40.7806404  24.7562254  71.3237479  39.3910454  25.1840079  71.7455377
  47.5693095  23.6352189  75.5981207  47.5511571  24.4561070  75.1061477
  48.4913015  23.5106264  75.8231349  44.0266150  21.1496318  76.4404716
  44.5594486  20.3884606  76.2104024  43.4980231  20.8569970  77.1828870
  47.1935844   6.2556384  71.9698357  46.8500114   7.1458026  71.8937468
  47.5614807   6.0658042  71.1067942  35.2621695  18.5789914  64.7886960
  36.0996917  18.9886923  64.5720667  35.4399963  17.6389357  64.7587153
  47.1586127  16.2464995  60.4770793  46.6432751  17.0169600  60.7159180
  46.8863436  15.5730131  61.1003854  44.7433238  11.0914696  65.5356031
  43.8874835  10.7021546  65.3561670  45.1560190  11.1706657  64.6755816
  46.2732385   8.6261039  69.9347591  45.7697180   8.5891174  69.1215396
  46.5662992   9.5353782  69.9944247  42.5175271   8.7099769  68.9413772
  43.3828268   8.5142578  68.5819662  42.5852780   8.4810121  69.8683129
  52.1320401  18.9997350  62.4123966  51.3549844  18.6608509  61.9679128
  52.8111882  19.0049973  61.7378931  46.9472430  14.1192087  62.3030574
  46.6422566  14.4338236  63.1540717  47.9002872  14.1973507  62.3457907
  45.3918862  20.2782310  63.9523528  44.8640224  19.5435070  63.6396765
  44.8906365  21.0556987  63.7063496  50.3711708  18.4731331  69.0690574
  49.7135383  19.1630592  69.1570703  51.1752107  18.8627763  69.4124560
  40.1237590  10.9401977  66.3130139  40.6981342  10.7177158  65.5803332
  40.7108572  11.0090671  67.0658741  49.1817167  16.8275704  67.1194516
  49.6949049  17.4605695  67.6216226  49.8318391  16.2276899  66.7537876
  40.4507177  12.9706438  60.3326025  39.6144489  13.3081124  60.6535299
  40.3111947  12.8355418  59.3953161  42.4260258   7.8143226  65.0405209
  41.7724670   7.4992243  64.4161823  42.3840732   7.1918966  65.7665032
  43.5371462  18.0962521  56.9558501  42.6298524  17.8651774  57.1549650
  44.0342494  17.3000140  57.1432482  46.4439541  26.8060028  59.8755187
  45.7701240  27.1091725  60.4840145  46.8305363  27.6089108  59.5260644
  45.6597998  14.3025159  69.3652856  44.7420559  14.5240106  69.2074544
  46.0758142  14.3771470  68.5064564  46.4433046  15.7016575  64.4955537
  47.1904865  16.2137972  64.1862659  46.7124635  15.3800628  65.3559930
  44.7159696  18.1975116  61.4782491  43.8070915  17.9134148  61.5754961
  44.7454780  18.6174194  60.6185798  49.9478963  21.8081705  65.2473658
  49.4941290  20.9672615  65.3038849  49.3172930  22.4443103  65.5848439
  48.8911883  12.7373691  66.4774326  48.1534640  12.2251077  66.8084568
  49.1438656  12.2974073  65.6657603  48.3911902  23.6458202  66.1823477
  48.6834877  24.2063259  65.4635842  48.9010523  23.9386763  66.9376636
  48.9923510   5.5149943  67.0716095  49.2982387   4.6547307  66.7842010
  49.7176115   6.1067563  66.8715089  35.2847866  15.9180630  65.4597693
  35.0872266  15.3249990  64.7348760  34.7294530  15.6132840  66.1773632
  43.2644590  15.8103736  67.5792286  43.3193200  14.8577573  67.5034763
  42.4535792  15.9663175  68.0633585  44.4135784  19.7383859  58.8170569
  43.9755214  19.0219718  58.3576207  45.1546224  19.9659974  58.2555661
  41.2036950  14.4280796  65.3382665  40.3904815  14.7274967  65.7447857
  41.6995944  14.0336485  66.0557147  43.3545528  24.4238553  67.2716930
  43.3121706  24.6499399  66.3425462  44.2708227  24.1901927  67.4202731
  46.8011161  14.8922620  74.1697559  47.1560549  15.1194094  75.0292025
  47.4483293  15.2240997  73.5474814  52.5308898  18.0141056  64.8746888
  52.3926797  18.2042652  63.9468077  52.1745117  18.7760439  65.3314939
  40.6951025  11.9999151  70.9543900  41.3350404  11.8587911  70.2566863
  39.8628555  11.7133665  70.5782502  52.5578278  20.0817583  69.8858160
  52.9914785  19.9892872  70.7341214  53.2709859  20.0575084  69.2478176
  41.4711328  21.3001582  67.0678892  42.2651927  20.8051902  66.8661467
  40.7603021  20.7719445  66.7046598  46.2906173  23.6819677  71.4191260
  46.3443195  24.2510614  72.1868976  45.4220954  23.8521562  71.0545297
  37.7794092  15.4444664  63.1438645  36.8491680  15.3829119  63.3608607
  37.8751564  14.9220616  62.3475286  37.6979641  11.9699476  65.7316887
  37.9586458  12.8844810  65.6226047  38.5196813  11.5023919  65.8813500
  39.1704566  13.3837234  72.9015711  39.8427620  13.1754596  72.2528360
  38.3434353  13.1859320  72.4620944  53.4193828  20.1241284  72.4191045
  53.6129718  21.0287094  72.6650320  53.3194446  19.6648703  73.2529630
  45.0730138  10.0099175  74.9181372  44.4258053  10.7089124  74.8245849
  45.8431154  10.4435318  75.2857620  48.4808936  20.2748027  77.9931926
  48.3294443  20.0458578  77.0762009  48.4713616  21.2318628  78.0063271
  45.2494273  17.8479939  72.9778192  46.1786333  17.9991099  72.8047159
  44.8285303  17.9363960  72.1226838  44.0482604  21.8730604  70.7476730
  43.9093690  21.5049388  71.6202668  43.2597201  22.3878243  70.5760687
  44.6430756  26.9739700  62.0902266  44.8182512  26.5027744  62.9047889
  43.9563544  27.6005467  62.3183527  45.5987820  21.2512207  68.1365567
  45.2637652  21.2112977  69.0323217  45.0991765  20.5856922  67.6635978
  39.5732064  16.6579837  73.6618149  39.4351861  15.9260075  74.2629688
  40.4836987  16.5688737  73.3802336  48.5347011  18.5968241  58.4102627
  47.9176182  17.8715069  58.3135680  48.0663500  19.3577601  58.0669701
  42.2014364  16.3699796  73.1501828  42.9113983  15.7292988  73.1088447
  42.1583672  16.6212691  74.0728009  50.1901143  23.3067149  76.0708407
  50.1313689  22.6226369  75.4038990  50.5920661  24.0486139  75.6189033
  40.9143298  13.3565014  74.9697468  40.3780655  12.9055752  75.6219064
  40.3260007  13.4910923  74.2267932  39.2091842  30.1229063  68.8642126
  39.4488440  30.7547587  69.5421145  38.3661038  29.7717103  69.1507486
  40.3245557  12.8153665  57.5323931  39.4475023  12.6942466  57.1686178
  40.8003310  12.0239744  57.2802820  50.1918550  21.2706733  74.3022387
  49.3045329  20.9332655  74.4248786  50.7617101  20.5389764  74.5391152
  31.8447697  17.6030825  67.6265438  32.5318737  17.2892555  67.0386454
  31.6895826  18.5072190  67.3532690  36.6482419  12.4921022  72.0550462
  36.5640608  11.8846691  71.3200872  35.8265126  12.9830040  72.0559958
  43.7219704  25.9308186  71.2683630  43.6489875  26.7363157  71.7802935
  43.2797097  26.1300151  70.4431652  43.5109483  25.1679956  64.7786452
  42.7277005  25.7101636  64.8724676  44.2102228  25.6853935  65.1780693
  46.8206133  10.9774585  67.4220657  47.3174833  10.2244547  67.1021727
  46.0493115  11.0138902  66.8563867  54.6735891  16.6814951  69.0638949
  54.6625767  17.5639666  68.6932882  53.8053270  16.3286501  68.8693486
  46.1818387  25.8295020  73.4241789  46.8946359  26.4642484  73.3517690
  45.6908416  25.9258886  72.6081791  47.9035914  19.7346272  64.9959081
  46.9692193  19.8547735  64.8263785  48.0812582  18.8318739  64.7319090
  43.4041102  13.1191968  67.1492342  43.0338890  12.5663008  67.8373247
  43.9000194  12.5150102  66.5967342  51.2908465  15.5763592  65.5309115
  51.7568918  16.4091583  65.4569417  51.7415966  15.1108573  66.2354373
  41.2330301  23.5789463  74.2447360  41.9339760  24.2125946  74.3976754
  40.7625416  23.9204195  73.4842999  49.3584696  21.9207413  62.5295267
  49.6344540  21.8064007  63.4389141  48.4889195  21.5224898  62.4907440
  49.2625128   7.9444179  69.5700016  48.3488208   8.1748405  69.7382223
  49.6918230   8.0282623  70.4214048  49.0331587  16.1334070  72.0699910
  48.3803037  16.3809978  71.4152363  49.4111966  15.3198209  71.7362387
  45.9938760  26.1693764  66.1728080  46.1761155  25.3515420  66.6355833
  46.8171746  26.3861456  65.7352970  46.3280926  25.0961949  63.4343129
  46.8568692  24.5854403  62.8213291  46.5909146  24.7804479  64.2988662
  45.0819160  16.8753882  78.5565947  44.4059797  16.7748011  79.2268322
  45.9046793  16.7193095  79.0201944  36.8298019  23.1125818  71.1778462
  37.4151455  22.3669506  71.3106367  36.6322857  23.4229775  72.0615126
  39.6836674  26.1477065  66.1940905  39.0147049  26.6323193  65.7104945
  39.5449544  26.3946286  67.1084283  31.4215673  15.6831418  69.8982906
  31.4599773  15.1495009  70.6920024  30.9155966  15.1566624  69.2793883
  43.8241942  28.1820809  72.7923563  44.3760251  28.3452431  73.5572648
  44.1648136  28.7725247  72.1203588  38.8006436  10.5295959  73.3945448
  38.8647762  11.3910790  72.9822846  38.7373556   9.9169960  72.6617806
  38.2758708  12.6019091  77.0418482  38.9030747  12.2196169  77.6556006
  37.4186627  12.3833293  77.4074175  48.6752817  23.0082067  78.6472218
  49.2192721  23.6212025  78.1527172  48.0939662  23.5661645  79.1639231
  35.0524251  14.4095520  62.9736837  35.3477692  13.5006199  62.9203891
  34.1512287  14.3883260  62.6517839  46.9610330  26.1302785  69.7787245
  46.8361469  25.3292524  69.2698191  47.6189421  26.6248978  69.2901215
  38.5818498  12.4851517  68.9564386  37.8605084  13.0987485  68.8171859
  39.3711754  13.0209282  68.8781031  49.0245238  23.9311805  71.4066795
  48.0775574  23.8117156  71.3345122  49.3728011  23.0434303  71.4893057
  41.3844812   9.8205944  75.2305037  41.9079213  10.0668240  75.9931347
  41.1657145  10.6525978  74.8108175  36.7812093  12.0909618  63.0976162
  36.4524799  11.2106997  62.9151268  37.1351463  12.0357287  63.9852551
  46.0291671  23.7264521  67.6071148  45.8816634  22.7981228  67.7878718
  46.8545165  23.7484612  67.1228223  39.8953916  12.3782588  63.4651640
  40.2349988  12.9068509  62.7430248  40.3426036  12.7162994  64.2410206
  49.6325793  24.5493080  68.6936020  50.5572341  24.3435941  68.5560472
  49.4641097  24.3009481  69.6025362  42.5897357  10.7619639  72.9154708
  42.2494177   9.9627452  73.3175388  41.8836363  11.0621349  72.3431541
  43.2413828   7.8468951  71.3682031  44.0639898   7.3729429  71.2460921
  43.4851892   8.6259435  71.8680717  41.8822063  10.8757210  61.6644933
  42.6030425  11.2538462  61.1608649  41.2587367  11.5946086  61.7679910
  46.0253186  11.5802358  62.6003265  46.2416800  12.4626996  62.2992093
  45.5447253  11.1888572  61.8708907  40.7652407  14.5388072  69.1774009
  40.6196988  14.8528375  70.0698291  40.2877611  15.1572972  68.6244908
  42.6248790  11.5290620  69.2254899  42.6110359  10.6331713  68.8887197
  43.3421218  11.5361283  69.8593185  44.4774921  11.9627960  71.2708026
  44.2192699  12.8845031  71.2692357  43.9459961  11.5658394  71.9608491
  49.4221109  25.0678747  64.0498112  49.5957987  24.5025169  63.2971964
  49.9150001  25.8679642  63.8677602  35.2398069  17.0793416  72.1161671
  34.6951537  17.8553224  72.2481945  36.1177419  17.4264221  71.9580792
  42.0285686  10.4105000  64.4942469  42.1501597   9.4821646  64.6933357
  41.7387728  10.4243686  63.5820785  44.8976876   8.0959910  67.6309189
  44.9198573   8.1599243  66.6761169  45.3144935   7.2564419  67.8249695
  55.2760501  17.8315170  65.6688412  55.7191647  17.0822495  65.2707535
  54.3987011  17.8225306  65.2862144  50.4096282  24.3845511  61.1495010
  51.1047187  25.0052204  61.3682325  50.7519432  23.5340863  61.4247388
  36.0264091  16.2063312  75.0091828  35.2845827  16.3545948  75.5956458
  35.7056835  16.4671578  74.1458577  52.3087705  21.8345217  62.6782341
  52.8339029  22.1732490  61.9531661  52.2210058  20.8992232  62.4945476
  43.9707754  25.7479291  74.8072218  44.2794880  25.5028437  75.6794917
  44.7683236  25.9525929  74.3191088  43.9928366  27.9017200  67.0377594
  43.5533356  27.4093579  67.7310451  44.7436483  27.3590168  66.7969669
  36.4720705  24.0928741  67.0402222  37.2978725  23.7932513  66.6600866
  36.1214757  23.3236364  67.4892011  41.4402238  23.4455209  69.1099896
  40.8182247  22.7825914  68.8102124  42.1107105  23.4716341  68.4273544
  34.6729310  22.0115068  67.9991156  33.8361218  21.5837242  67.8175157
  34.6452955  22.2047511  68.9361947  41.5126765  11.9236997  78.7032402
  41.5614921  12.7999120  78.3210171  42.0549280  11.3814390  78.1304045
  51.9981611  22.4678121  77.9833539  51.2077155  22.4502259  77.4438038
  51.7614966  23.0066414  78.7382575  52.1179486  19.3170587  75.2966267
  52.1677491  19.1520594  76.2381790  52.0093410  18.4497846  74.9064148
  41.0015745  21.9959133  62.5858356  41.1503865  22.6794597  61.9325029
  41.8082188  21.9764223  63.1007812  49.4083249  15.3001515  76.6125574
  50.3093111  15.1607980  76.3209572  49.4831223  15.4655970  77.5523752
  43.7426054  12.6768370  75.4578760  42.8729363  12.9701936  75.1861349
  43.9785534  13.2608815  76.1786024  53.6197683  21.7367528  75.5408289
  53.3282491  22.0997509  76.3771750  53.0069814  21.0234537  75.3621621
  54.8193365  19.3020408  68.0610859  55.6540257  19.7410212  68.2248420
  54.9552494  18.8259061  67.2419105  51.8684871  16.8600143  74.0088347
  52.3438993  17.0527789  73.2007198  50.9450437  16.9159329  73.7631731
  38.7568378  18.0224310  63.5919425  38.5114420  17.1186640  63.7899635
  38.9264292  18.0241461  62.6498903  46.4465088   8.8947987  72.9744181
  46.9647032   9.6309014  72.6490669  46.0920221   9.2011980  73.8090940
  38.0264025  13.7552668  61.0905587  37.3333270  13.8297023  60.4345623
  37.7815777  12.9913012  61.6127104  46.6977682   5.3148269  68.4945077
  46.9779436   4.6471458  69.1205504  47.4828289   5.5077365  67.9819741
  44.5011150  24.4907263  60.0570104  43.9285118  25.1097450  59.6040576
  45.0743944  25.0406625  60.5910026  50.5686540  13.7365903  72.2416653
  51.5203963  13.8364001  72.2628877  50.3989991  12.9444172  72.7514737
  48.5900920  10.8221486  72.4276053  47.9950852  11.1026499  71.7322542
  48.3050616  11.3115387  73.1992795  47.7208410  24.7744413  61.1878686
  48.6539083  24.7089975  61.3911562  47.6331623  25.6100680  60.7293219
  50.3496427  24.0910284  58.1482634  50.2710058  23.7570147  59.0418391
  51.1706094  24.5832051  58.1474106  53.0474618  16.9572023  71.3558952
  53.0150938  16.0188024  71.5418636  53.6575242  17.0356060  70.6224777
  44.8857949  15.8268076  57.3986156  45.8317054  15.6974284  57.4674574
  44.5072194  15.0882738  57.8755584  53.1969107  13.7483066  71.4017235
  52.6808155  12.9641523  71.2147164  54.0809055  13.4201783  71.5663755
  50.8579833   7.4924082  67.3613048  50.6604655   7.1839170  68.2456380
  51.4679539   8.2185721  67.4910978  58.8651168  18.0188030  70.4964989
  59.5954556  17.7573318  71.0572692  58.2558113  17.2816752  70.5367057
  56.9466465  16.1595892  71.0939440  56.2199629  16.0251857  70.4855932
  56.5313752  16.4672721  71.8996158  44.7696641  19.8785822  78.8586813
  45.6899651  20.0564421  79.0526860  44.7346225  18.9341867  78.7066512
  43.0700866  13.7518052  57.3341041  42.1632321  13.4551165  57.4103755
  43.3476847  13.4547870  56.4675328  33.9878806  15.0724416  67.7840088
  33.6681591  14.2189724  67.4914462  33.4412235  15.2872994  68.5398055
  37.7658714  17.7886857  71.5009594  37.9844724  18.7203964  71.5197628
  38.1784488  17.4294831  72.2864398  44.6862932   8.2954942  63.4885283
  43.8763660   7.9502027  63.8640529  45.3747349   7.9862486  64.0772894
  46.6153480   7.3732989  65.1109579  47.1684519   7.7928442  65.7699602
  46.8523566   6.4468737  65.1532535  42.6386579  13.3620062  80.8912343
  42.5383306  14.3114419  80.8224434  42.4208121  13.0338301  80.0188413
  41.8399651  10.6104987  57.4753021  42.7018815  10.9359886  57.7348838
  42.0249995   9.8236483  56.9626086  33.8567066  18.6927327  69.7533209
  33.1630538  18.2781280  69.2403164  34.6040057  18.7347864  69.1566628
  49.9932287   9.4833514  64.6188244  49.4130956  10.1418318  64.2366296
  49.7268220   8.6610859  64.2075661  48.4435854   8.8838572  66.8209564
  48.9435632   8.9955106  66.0123883  49.0871461   8.5799624  67.4610372
  42.5017849  16.7917201  79.7077405  42.0184931  17.5917561  79.9141294
  42.5878788  16.8025146  78.7544849  35.7703809  18.6245581  67.6299224
  35.7474497  18.7233268  66.6781107  36.0804445  19.4710732  67.9516390
  38.4291187  20.6821736  71.7445839  39.3834440  20.6505678  71.6775770
  38.2303710  20.2212360  72.5596065  39.0190569  19.2522852  74.3116636
  39.8383458  19.7466931  74.3351474  39.2927377  18.3354820  74.2834204
  48.7757165  11.6433604  63.6744592  47.8883020  11.9283255  63.4564787
  49.1911154  11.4827368  62.8271869  52.1271701  11.6680125  67.3898931
  52.9032091  12.1576578  67.6623548  51.4019836  12.0938179  67.8470801
  54.5644260  12.3807745  68.4472872  55.1588751  12.1403480  67.7366180
  54.6370844  11.6614875  69.0746408  36.7841416  26.2241355  68.7616037
  36.6495884  25.4641756  68.1954035  36.3673478  26.9482255  68.2944825
  47.9200379  21.4078279  57.7692612  48.6236229  21.6128281  58.3850267
  47.1963027  21.9755041  58.0341695  48.7498189  17.1588140  63.8894882
  48.6933390  17.6156692  63.0502514  49.3026531  16.3978825  63.7117725
  52.5602995  12.9477872  64.7145002  52.3039929  12.5474508  65.5453209
  51.9355863  13.6621666  64.5895141  56.8715333  15.6873945  67.2216293
  56.3114891  15.7567135  67.9947855  56.2658836  15.5114930  66.5015789
  39.9410542  27.1210672  68.9734479  39.8242926  28.0656105  68.8713169
  39.1202988  26.8184234  69.3620278  49.8287076  21.8460808  59.8191072
  50.6632680  21.4142007  59.6368547  49.6671419  21.6742822  60.7467966
  49.4832968  18.3492921  61.1847411  49.4281772  18.1837193  60.2435855
  48.8579024  19.0568954  61.3409601  34.2725483  13.5860986  75.0108833
  34.9184347  13.0759940  75.4996059  34.0642634  14.3229668  75.5852259
  46.7978875  20.6541833  80.5100974  47.6670035  20.8282486  80.1487609
  46.3185627  21.4736250  80.3876703  42.7929094   7.8501030  60.7632730
  42.7807764   8.7942870  60.9201000  43.6852516   7.6671176  60.4692191
  40.9665056  27.7738934  72.1890408  41.8692302  27.8062545  72.5056903
  40.7402426  26.8439385  72.2036743  42.7218658  26.5269921  68.8500486
  41.7714289  26.5271783  68.7364859  43.0251144  25.7802655  68.3336521
  46.6081213   4.4443807  65.0178666  45.8413609   3.8902294  65.1635349
  47.0191918   4.5165676  65.8792818  38.6122974  10.7328603  79.1083848
  39.4754436  10.3765408  79.3187172  38.0388385  10.3942498  79.7959252
  58.4571351  32.3630459  69.9146249  59.0949761  32.2437207  69.2109589
  58.3392194  33.3111303  69.9734201  55.2661057  32.3157887  69.8507773
  54.9279569  32.1998952  68.9628308  56.1350826  31.9149052  69.8308780
  51.1247873  34.1693364  65.8404664  50.5612738  34.0783301  65.0720952
  51.0100268  33.3493268  66.3207157  55.7480840  33.4692739  75.8093979
  55.7369481  33.0745537  74.9374483  55.9101480  32.7358812  76.4027750
  48.6712305  35.6644555  68.6788885  49.4633597  35.3235380  68.2635184
  48.9108955  35.7739530  69.5991038  56.7047432  37.8364332  61.1519129
  56.0535412  38.4218412  60.7653143  57.4991795  38.3670526  61.2114167
  50.6303059  34.9253469  61.5506264  51.4033935  34.3782456  61.4119139
  50.9828458  35.7897718  61.7620725  52.4688102  36.2529851  74.7573163
  52.1777968  37.1575482  74.6419829  53.1045086  36.2946379  75.4717232
  53.3944308  33.6306699  71.3474523  53.9907881  33.4062722  70.6331485
  53.4519280  32.8891445  71.9499970  52.9669337  31.0846135  59.1824713
  53.2194858  30.5627656  58.4208176  52.0293896  30.9212280  59.2851397
  58.0112620  30.0881913  66.9899457  58.7975709  29.6701336  66.6389874
  58.2751324  30.9928005  67.1581105  58.1822697  35.5254763  61.6888114
  57.5468530  35.5989390  62.4009018  57.8520103  36.1148362  61.0107193
  63.4121047  30.0257146  67.8932435  64.1446219  29.4556363  68.1270265
  62.6560402  29.6378747  68.3338941  52.6865626  32.9874241  61.3849088
  52.5701884  32.3119144  62.0530173  52.7967885  32.5006615  60.5681241
  55.0297167  32.4484388  65.0895778  54.6655374  31.9215009  65.8008699
  55.8864282  32.0582857  64.9162263  60.9346467  23.7378720  72.3527044
  60.6029792  24.6074131  72.1288259  60.3392081  23.4215004  73.0321074
  54.6702653  27.4774288  60.0857126  54.8377056  28.3454524  60.4527597
  54.4799823  27.6401569  59.1618415  57.4277987  35.9391266  71.7522957
  57.1278710  36.8416305  71.6438764  57.0829046  35.6723450  72.6044109
  50.8790468  32.3905063  67.7859661  49.9540965  32.2581277  67.9937353
  51.1274881  33.1699283  68.2829603  60.8275130  28.4573807  69.4320394
  59.9192008  28.3889215  69.1379155  60.7762726  28.9345752  70.2602219
  54.6491874  29.9331945  61.0703793  54.5291500  30.3788996  61.9089273
  53.9544463  30.2817263  60.5117331  48.2399279  32.0338337  68.6203450
  48.3691660  32.2872816  69.5342862  47.5596730  32.6266045  68.3008105
  52.4098766  42.7035587  64.7193924  52.3322796  43.6543412  64.7982405
  51.8060410  42.3581459  65.3768851  54.9015996  29.8763452  77.3755291
  54.1249330  30.4357372  77.3658156  55.5406559  30.3620235  77.8970161
  62.6936777  26.6590245  71.2098268  62.0511157  26.9522778  70.5638062
  62.1891705  26.5443165  72.0151464  60.3476941  30.4053418  61.8984127
  61.2594797  30.6380805  61.7231825  59.8386588  30.9890462  61.3359206
  53.1562369  32.6848906  76.9373258  53.8977053  33.2233950  76.6608082
  52.4499354  33.3115194  77.0944810  58.6317708  34.8278046  75.5345420
  59.0401064  34.3860457  74.7900052  57.9094970  34.2530674  75.7879613
  54.9848778  29.7650653  72.9078977  55.8309973  30.1890066  73.0513626
  54.9247416  29.1084277  73.6017540  58.9546523  35.3879237  69.2897709
  58.3255385  35.5524951  68.5873776  58.5672185  35.8020846  70.0608673
  62.8335755  36.3233675  66.6442072  62.1486793  36.7032576  66.0939106
  62.9179604  36.9329001  67.3774020  58.1348224  27.4255021  74.5660150
  57.8909155  28.1797082  74.0294426  58.4108154  27.8040369  75.4007397
  60.0886686  33.9693634  73.2437416  60.3003582  34.6125393  72.5671797
  60.0416435  33.1355950  72.7759346  57.6912915  26.5811454  70.1473988
  56.8297394  26.8792708  70.4390726  57.7175350  26.7981853  69.2155021
  54.5074485  35.1253645  66.5547794  54.9712830  35.4041348  65.7652416
  54.2431283  34.2237089  66.3720884  51.3998566  34.6725126  69.4927557
  51.9699923  35.1012395  68.8545041  51.9906678  34.3907711  70.1911743
  53.4443371  31.2476797  63.3637359  54.1467414  31.6997841  63.8311285
  53.1123999  30.6060616  63.9917252  51.8923732  29.8388554  77.7388568
  51.2622393  30.5204835  77.9723965  51.7859820  29.7271635  76.7941706
  47.1868705  29.5060350  68.6654492  46.3967759  29.7617878  68.1894603
  47.6779952  30.3208688  68.7706533  61.2032514  36.8465589  71.4159773
  62.0249958  36.4445776  71.1342455  61.1994917  36.7433823  72.3675889
  49.1383450  29.8704929  65.6237969  48.3414613  29.9823623  66.1421465
  48.9109042  30.2091581  64.7578860  54.9689118  36.3949632  73.5720484
  55.0333550  36.8570039  74.4078656  54.2600042  35.7646997  73.7002794
  45.4706408  29.7590840  71.0969483  45.7214446  30.6437850  71.3627059
  46.0065956  29.5795442  70.3244575  69.2938507  33.1904337  67.7644745
  68.5402216  32.6211736  67.6088749  69.4286049  33.1567002  68.7115379
  54.6837135  38.0617740  63.4399464  54.5482810  38.9069275  63.8684312
  55.2246948  38.2637017  62.6765398  51.1704475  24.1409320  80.1013819
  50.7771421  23.5875518  80.7761463  51.9870615  24.4519898  80.4920337
  48.1366533  35.5793178  64.0127389  48.6491053  36.3736428  64.1632954
  48.7889246  34.8819468  63.9460991  49.9461417  38.6958934  66.0950142
  50.1228046  39.6176899  65.9071126  50.7418251  38.3817353  66.5244522
  54.0872436  25.5567199  77.6934076  54.8282149  26.1574352  77.6138538
  54.3190359  24.8144836  77.1352118  49.2313774  30.7423566  75.9712305
  49.1167289  29.8408823  76.2719404  48.3758292  30.9887263  75.6197122
  56.3105612  38.6841306  77.5699806  55.8669466  37.8977685  77.2520711
  56.9722825  38.8720457  76.9043697  51.0692733  40.2137108  72.0960485
  51.6200158  40.0854171  71.3237479  50.2304209  40.5131997  71.7455377
  58.4086850  38.9644106  75.5981207  58.3905325  39.7852987  75.1061477
  59.3306770  38.8398181  75.8231349  54.8659904  36.4788236  76.4404716
  55.3988241  35.7176524  76.2104024  54.3373985  36.1861887  77.1828870
  58.0329599  21.5848302  71.9698357  57.6893868  22.4749943  71.8937468
  58.4008562  21.3949959  71.1067942  46.1015450  33.9081832  64.7886960
  46.9390672  34.3178840  64.5720667  46.2793717  32.9681274  64.7587153
  57.9979882  31.5756913  60.4770793  57.4826505  32.3461517  60.7159180
  57.7257190  30.9022049  61.1003854  55.5826993  26.4206614  65.5356031
  54.7268589  26.0313464  65.3561670  55.9953944  26.4998574  64.6755816
  57.1126139  23.9552957  69.9347591  56.6090935  23.9183092  69.1215396
  57.4056746  24.8645699  69.9944247  53.3569025  24.0391687  68.9413772
  54.2222022  23.8434495  68.5819662  53.4246534  23.8102038  69.8683129
  62.9714156  34.3289267  62.4123966  62.1943599  33.9900427  61.9679128
  63.6505637  34.3341891  61.7378931  57.7866185  29.4484005  62.3030574
  57.4816320  29.7630154  63.1540717  58.7396627  29.5265425  62.3457907
  56.2312617  35.6074228  63.9523528  55.7033978  34.8726988  63.6396765
  55.7300119  36.3848904  63.7063496  61.2105463  33.8023249  69.0690574
  60.5529137  34.4922510  69.1570703  62.0145862  34.1919681  69.4124560
  50.9631344  26.2693894  66.3130139  51.5375096  26.0469076  65.5803332
  51.5502327  26.3382589  67.0658741  60.0210922  32.1567621  67.1194516
  60.5342803  32.7897613  67.6216226  60.6712145  31.5568817  66.7537876
  51.2900931  28.2998355  60.3326025  50.4538244  28.6373042  60.6535299
  51.1505701  28.1647335  59.3953161  53.2654012  23.1435143  65.0405209
  52.6118424  22.8284161  64.4161823  53.2234486  22.5210884  65.7665032
  54.3765217  33.4254438  56.9558501  53.4692279  33.1943692  57.1549650
  54.8736249  32.6292058  57.1432482  57.2833296  42.1351946  59.8755187
  56.6094995  42.4383642  60.4840145  57.6699118  42.9381026  59.5260644
  56.4991752  29.6317077  69.3652856  55.5814314  29.8532024  69.2074544
  56.9151896  29.7063387  68.5064564  57.2826800  31.0308493  64.4955537
  58.0298619  31.5429890  64.1862659  57.5518390  30.7092545  65.3559930
  55.5553450  33.5267033  61.4782491  54.6464670  33.2426066  61.5754961
  55.5848534  33.9466112  60.6185798  60.7872718  37.1373623  65.2473658
  60.3335045  36.2964533  65.3038849  60.1566684  37.7735021  65.5848439
  59.7305637  28.0665609  66.4774326  58.9928394  27.5542995  66.8084568
  59.9832411  27.6265990  65.6657603  59.2305657  38.9750119  66.1823477
  59.5228631  39.5355177  65.4635842  59.7404278  39.2678680  66.9376636
  59.8317265  20.8441861  67.0716095  60.1376141  19.9839224  66.7842010
  60.5569869  21.4359481  66.8715089  46.1241621  31.2472547  65.4597693
  45.9266021  30.6541908  64.7348760  45.5688285  30.9424758  66.1773632
  54.1038344  31.1395654  67.5792286  54.1586954  30.1869490  67.5034763
  53.2929546  31.2955093  68.0633585  55.2529538  35.0675777  58.8170569
  54.8148968  34.3511636  58.3576207  55.9939979  35.2951892  58.2555661
  52.0430704  29.7572714  65.3382665  51.2298570  30.0566884  65.7447857
  52.5389698  29.3628402  66.0557147  54.1939282  39.7530471  67.2716930
  54.1515461  39.9791317  66.3425462  55.1101981  39.5193845  67.4202731
  57.6404916  30.2214538  74.1697559  57.9954304  30.4486011  75.0292025
  58.2877047  30.5532915  73.5474814  63.3702653  33.3432974  64.8746888
  63.2320551  33.5334570  63.9468077  63.0138872  34.1052357  65.3314939
  51.5344779  27.3291069  70.9543900  52.1744158  27.1879828  70.2566863
  50.7022310  27.0425583  70.5782502  63.3972032  35.4109501  69.8858160
  63.8308539  35.3184790  70.7341214  64.1103613  35.3867001  69.2478176
  52.3105083  36.6293500  67.0678892  53.1045681  36.1343820  66.8661467
  51.5996775  36.1011363  66.7046598  57.1299927  39.0111595  71.4191260
  57.1836950  39.5802531  72.1868976  56.2614709  39.1813480  71.0545297
  48.6187846  30.7736581  63.1438645  47.6885434  30.7121037  63.3608607
  48.7145318  30.2512534  62.3475286  48.5373395  27.2991394  65.7316887
  48.7980213  28.2136727  65.6226047  49.3590568  26.8315837  65.8813500
  50.0098321  28.7129151  72.9015711  50.6821374  28.5046513  72.2528360
  49.1828107  28.5151237  72.4620944  64.2587582  35.4533202  72.4191045
  64.4523472  36.3579012  72.6650320  64.1588200  34.9940621  73.2529630
  55.9123893  25.3391092  74.9181372  55.2651808  26.0381042  74.8245849
  56.6824908  25.7727236  75.2857620  59.3202691  35.6039944  77.9931926
  59.1688197  35.3750496  77.0762009  59.3107370  36.5610546  78.0063271
  56.0888027  33.1771857  72.9778192  57.0180087  33.3283017  72.8047159
  55.6679057  33.2655878  72.1226838  54.8876359  37.2022522  70.7476730
  54.7487445  36.8341306  71.6202668  54.0990955  37.7170161  70.5760687
  55.4824511  42.3031618  62.0902266  55.6576267  41.8319661  62.9047889
  54.7957299  42.9297384  62.3183527  56.4381574  36.5804124  68.1365567
  56.1031407  36.5404894  69.0323217  55.9385520  35.9148840  67.6635978
  50.4125818  31.9871754  73.6618149  50.2745616  31.2551993  74.2629688
  51.3230742  31.8980654  73.3802336  59.3740766  33.9260159  58.4102627
  58.7569936  33.2006987  58.3135680  58.9057254  34.6869519  58.0669701
  53.0408119  31.6991714  73.1501828  53.7507737  31.0584906  73.1088447
  52.9977427  31.9504608  74.0728009  61.0294897  38.6359067  76.0708407
  60.9707444  37.9518287  75.4038990  61.4314416  39.3778057  75.6189033
  51.7537053  28.6856931  74.9697468  51.2174410  28.2347670  75.6219064
  51.1653761  28.8202840  74.2267932  51.1639312  28.1445583  57.5323931
  50.2868778  28.0234384  57.1686178  51.6397065  27.3531661  57.2802820
  61.0312305  36.5998651  74.3022387  60.1439083  36.2624573  74.4248786
  61.6010856  35.8681682  74.5391152  42.6841452  32.9322743  67.6265438
  43.3712492  32.6184473  67.0386454  42.5289580  33.8364107  67.3532690
  47.4876174  27.8212939  72.0550462  47.4034363  27.2138609  71.3200872
  46.6658880  28.3121957  72.0559958  54.5613458  41.2600103  71.2683630
  54.4883630  42.0655075  71.7802935  54.1190851  41.4592069  70.4431652
  54.3503238  40.4971873  64.7786452  53.5670760  41.0393553  64.8724676
  55.0495983  41.0145853  65.1780693  57.6599888  26.3066503  67.4220657
  58.1568587  25.5536465  67.1021727  56.8886869  26.3430819  66.8563867
  65.5129645  32.0106868  69.0638949  65.5019521  32.8931584  68.6932882
  64.6447025  31.6578419  68.8693486  57.0212142  41.1586937  73.4241789
  57.7340114  41.7934402  73.3517690  56.5302170  41.2550803  72.6081791
  58.7429668  35.0638190  64.9959081  57.8085947  35.1839652  64.8263785
  58.9206337  34.1610657  64.7319090  54.2434857  28.4483886  67.1492342
  53.8732644  27.8954926  67.8373247  54.7393949  27.8442019  66.5967342
  62.1302220  30.9055509  65.5309115  62.5962672  31.7383501  65.4569417
  62.5809720  30.4400491  66.2354373  52.0724055  38.9081381  74.2447360
  52.7733515  39.5417864  74.3976754  51.6019170  39.2496112  73.4842999
  60.1978451  37.2499331  62.5295267  60.4738295  37.1355925  63.4389141
  59.3282950  36.8516815  62.4907440  60.1018883  23.2736096  69.5700016
  59.1881962  23.5040323  69.7382223  60.5311984  23.3574540  70.4214048
  59.8725341  31.4625988  72.0699910  59.2196791  31.7101896  71.4152363
  60.2505721  30.6490126  71.7362387  56.8332515  41.4985681  66.1728080
  57.0154909  40.6807337  66.6355833  57.6565501  41.7153374  65.7352970
  57.1674680  40.4253866  63.4343129  57.6962447  39.9146321  62.8213291
  57.4302900  40.1096397  64.2988662  55.9212914  32.2045799  78.5565947
  55.2453551  32.1039929  79.2268322  56.7440548  32.0485013  79.0201944
  47.6691773  38.4417736  71.1778462  48.2545210  37.6961424  71.3106367
  47.4716612  38.7521692  72.0615126  50.5230428  41.4768983  66.1940905
  49.8540804  41.9615111  65.7104945  50.3843298  41.7238204  67.1084283
  42.2609428  31.0123336  69.8982906  42.2993527  30.4786927  70.6920024
  41.7549721  30.4858541  69.2793883  54.6635697  43.5112727  72.7923563
  55.2154005  43.6744348  73.5572648  55.0041890  44.1017165  72.1203588
  49.6400190  25.8587876  73.3945448  49.7041517  26.7202707  72.9822846
  49.5767310  25.2461878  72.6617806  49.1152463  27.9311009  77.0418482
  49.7424502  27.5488086  77.6556006  48.2580382  27.7125211  77.4074175
  59.5146571  38.3373984  78.6472218  60.0586475  38.9503942  78.1527172
  58.9333416  38.8953563  79.1639231  45.8918005  29.7387438  62.9736837
  46.1871447  28.8298117  62.9203891  44.9906041  29.7175178  62.6517839
  57.8004084  41.4594702  69.7787245  57.6755224  40.6584442  69.2698191
  58.4583175  41.9540896  69.2901215  49.4212252  27.8143435  68.9564386
  48.6998838  28.4279402  68.8171859  50.2105508  28.3501200  68.8781031
  59.8638993  39.2603722  71.4066795  58.9169328  39.1409073  71.3345122
  60.2121766  38.3726220  71.4893057  52.2238566  25.1497861  75.2305037
  52.7472968  25.3960158  75.9931347  52.0050899  25.9817896  74.8108175
  47.6205847  27.4201536  63.0976162  47.2918553  26.5398915  62.9151268
  47.9745218  27.3649204  63.9852551  56.8685426  39.0556439  67.6071148
  56.7210388  38.1273146  67.7878718  57.6938919  39.0776529  67.1228223
  50.7347670  27.7074506  63.4651640  51.0743743  28.2360427  62.7430248
  51.1819791  28.0454912  64.2410206  60.4719548  39.8784997  68.6936020
  61.3966095  39.6727859  68.5560472  60.3034851  39.6301398  69.6025362
  53.4291111  26.0911556  72.9154708  53.0887931  25.2919369  73.3175388
  52.7230117  26.3913267  72.3431541  54.0807583  23.1760869  71.3682031
  54.9033652  22.7021347  71.2460921  54.3245646  23.9551352  71.8680717
  52.7215817  26.2049127  61.6644933  53.4424180  26.5830380  61.1608649
  52.0981121  26.9238004  61.7679910  56.8646940  26.9094276  62.6003265
  57.0810555  27.7918914  62.2992093  56.3841007  26.5180490  61.8708907
  51.6046162  29.8679989  69.1774009  51.4590742  30.1820292  70.0698291
  51.1271365  30.4864890  68.6244908  53.4642545  26.8582537  69.2254899
  53.4504113  25.9623631  68.8887197  54.1814973  26.8653201  69.8593185
  55.3168675  27.2919878  71.2708026  55.0586453  28.2136948  71.2692357
  54.7853716  26.8950312  71.9608491  60.2614864  40.3970665  64.0498112
  60.4351742  39.8317087  63.2971964  60.7543755  41.1971560  63.8677602
  46.0791824  32.4085334  72.1161671  45.5345292  33.1845142  72.2481945
  46.9571174  32.7556138  71.9580792  52.8679440  25.7396918  64.4942469
  52.9895352  24.8113564  64.6933357  52.5781483  25.7535604  63.5820785
  55.7370631  23.4251828  67.6309189  55.7592328  23.4891161  66.6761169
  56.1538690  22.5856337  67.8249695  66.1154255  33.1607088  65.6688412
  66.5585401  32.4114413  65.2707535  65.2380765  33.1517224  65.2862144
  61.2490036  39.7137429  61.1495010  61.9440941  40.3344122  61.3682325
  61.5913187  38.8632780  61.4247388  46.8657846  31.5355230  75.0091828
  46.1239582  31.6837865  75.5956458  46.5450590  31.7963496  74.1458577
  63.1481460  37.1637135  62.6782341  63.6732784  37.5024407  61.9531661
  63.0603812  36.2284150  62.4945476  54.8101508  41.0771208  74.8072218
  55.1188635  40.8320355  75.6794917  55.6076990  41.2817847  74.3191088
  54.8322120  43.2309118  67.0377594  54.3927111  42.7385497  67.7310451
  55.5830237  42.6882086  66.7969669  47.3114459  39.4220659  67.0402222
  48.1372479  39.1224431  66.6600866  46.9608511  38.6528281  67.4892011
  52.2795992  38.7747127  69.1099896  51.6576002  38.1117832  68.8102124
  52.9500859  38.8008259  68.4273544  45.5123064  37.3406985  67.9991156
  44.6754973  36.9129160  67.8175157  45.4846710  37.5339429  68.9361947
  52.3520520  27.2528915  78.7032402  52.4008675  28.1291038  78.3210171
  52.8943034  26.7106308  78.1304045  62.8375366  37.7970038  77.9833539
  62.0470909  37.7794177  77.4438038  62.6008720  38.3358332  78.7382575
  62.9573241  34.6462505  75.2966267  63.0071246  34.4812512  76.2381790
  62.8487164  33.7789764  74.9064148  51.8409499  37.3251050  62.5858356
  51.9897620  38.0086515  61.9325029  52.6475943  37.3056140  63.1007812
  60.2477003  30.6293433  76.6125574  61.1486866  30.4899898  76.3209572
  60.3224978  30.7947888  77.5523752  54.5819808  28.0060287  75.4578760
  53.7123118  28.2993853  75.1861349  54.8179289  28.5900732  76.1786024
  64.4591438  37.0659446  75.5408289  64.1676246  37.4289427  76.3771750
  63.8463569  36.3526454  75.3621621  65.6587120  34.6312326  68.0610859
  66.4934011  35.0702130  68.2248420  65.7946249  34.1550979  67.2419105
  62.7078626  32.1892061  74.0088347  63.1832747  32.3819707  73.2007198
  61.7844191  32.2451247  73.7631731  49.5962132  33.3516228  63.5919425
  49.3508174  32.4478558  63.7899635  49.7658047  33.3533378  62.6498903
  57.2858842  24.2239904  72.9744181  57.8040786  24.9600931  72.6490669
  56.9313975  24.5303898  73.8090940  48.8657780  29.0844586  61.0905587
  48.1727025  29.1588941  60.4345623  48.6209532  28.3204929  61.6127104
  57.5371436  20.6440187  68.4945077  57.8173190  19.9763376  69.1205504
  58.3222043  20.8369282  67.9819741  55.3404905  39.8199181  60.0570104
  54.7678872  40.4389368  59.6040576  55.9137699  40.3698542  60.5910026
  61.4080295  29.0657821  72.2416653  62.3597718  29.1655919  72.2628877
  61.2383745  28.2736089  72.7514737  59.4294674  26.1513404  72.4276053
  58.8344606  26.4318417  71.7322542  59.1444371  26.6407305  73.1992795
  58.5602165  40.1036331  61.1878686  59.4932838  40.0381893  61.3911562
  58.4725378  40.9392598  60.7293219  61.1890181  39.4202201  58.1482634
  61.1103813  39.0862065  59.0418391  62.0099848  39.9123969  58.1474106
  63.8868373  32.2863941  71.3558952  63.8544693  31.3479941  71.5418636
  64.4968996  32.3647977  70.6224777  55.7251703  31.1559994  57.3986156
  56.6710808  31.0266202  57.4674574  55.3465948  30.4174655  57.8755584
  64.0362861  29.0774984  71.4017235  63.5201910  28.2933441  71.2147164
  64.9202810  28.7493701  71.5663755  61.6973588  22.8216000  67.3613048
  61.4998409  22.5131088  68.2456380  62.3073294  23.5477638  67.4910978
  69.7044922  33.3479947  70.4964989  70.4348311  33.0865236  71.0572692
  69.0951868  32.6108669  70.5367057  67.7860220  31.4887810  71.0939440
  67.0593383  31.3543775  70.4855932  67.3707506  31.7964639  71.8996158
  55.6090396  35.2077740  78.8586813  56.5293405  35.3856339  79.0526860
  55.5739979  34.2633785  78.7066512  53.9094621  29.0809970  57.3341041
  53.0026076  28.7843083  57.4103755  54.1870602  28.7839788  56.4675328
  44.8272561  30.4016333  67.7840088  44.5075345  29.5481642  67.4914462
  44.2805989  30.6164911  68.5398055  48.6052469  33.1178774  71.5009594
  48.8238478  34.0495882  71.5197628  49.0178242  32.7586749  72.2864398
  55.5256686  23.6246860  63.4885283  54.7157415  23.2793945  63.8640529
  56.2141103  23.3154403  64.0772894  57.4547235  22.7024906  65.1109579
  58.0078273  23.1220360  65.7699602  57.6917321  21.7760655  65.1532535
  53.4780334  28.6911980  80.8912343  53.3777061  29.6406337  80.8224434
  53.2601876  28.3630219  80.0188413  52.6793405  25.9396905  57.4753021
  53.5412569  26.2651803  57.7348838  52.8643749  25.1528401  56.9626086
  44.6960821  34.0219245  69.7533209  44.0024292  33.6073198  69.2403164
  45.4433812  34.0639781  69.1566628  60.8326042  24.8125432  64.6188244
  60.2524711  25.4710236  64.2366296  60.5661974  23.9902776  64.2075661
  59.2829608  24.2130489  66.8209564  59.7829386  24.3247024  66.0123883
  59.9265216  23.9091542  67.4610372  53.3411604  32.1209119  79.7077405
  52.8578686  32.9209479  79.9141294  53.4272543  32.1317064  78.7544849
  46.6097563  33.9537499  67.6299224  46.5868252  34.0525186  66.6781107
  46.9198200  34.8002649  67.9516390  49.2684941  36.0113654  71.7445839
  50.2228195  35.9797596  71.6775770  49.0697465  35.5504277  72.5596065
  49.8584323  34.5814770  74.3116636  50.6777212  35.0758848  74.3351474
  50.1321131  33.6646738  74.2834204  59.6150920  26.9725522  63.6744592
  58.7276775  27.2575173  63.4564787  60.0304909  26.8119285  62.8271869
  62.9665456  26.9972043  67.3898931  63.7425846  27.4868495  67.6623548
  62.2413590  27.4230097  67.8470801  65.4038014  27.7099662  68.4472872
  65.9982505  27.4695398  67.7366180  65.4764598  26.9906793  69.0746408
  47.6235170  41.5533273  68.7616037  47.4889638  40.7933674  68.1954035
  47.2067232  42.2774173  68.2944825  58.7594133  36.7370197  57.7692612
  59.4629983  36.9420199  58.3850267  58.0356782  37.3046959  58.0341695
  59.5891943  32.4880058  63.8894882  59.5327145  32.9448609  63.0502514
  60.1420286  31.7270743  63.7117725  63.3996749  28.2769790  64.7145002
  63.1433684  27.8766425  65.5453209  62.7749617  28.9913584  64.5895141
  67.7109087  31.0165863  67.2216293  67.1508645  31.0859052  67.9947855
  67.1052591  30.8406848  66.5015789  50.7804296  42.4502590  68.9734479
  50.6636680  43.3948023  68.8713169  49.9596742  42.1476152  69.3620278
  60.6680831  37.1752726  59.8191072  61.5026434  36.7433924  59.6368547
  60.5065173  37.0034740  60.7467966  60.3226723  33.6784839  61.1847411
  60.2675527  33.5129111  60.2435855  59.6972778  34.3860872  61.3409601
  45.1119238  28.9152904  75.0108833  45.7578101  28.4051858  75.4996059
  44.9036389  29.6521585  75.5852259  57.6372630  35.9833751  80.5100974
  58.5063790  36.1574403  80.1487609  57.1579381  36.8028168  80.3876703
  53.6322848  23.1792948  60.7632730  53.6201518  24.1234788  60.9201000
  54.5246270  22.9963094  60.4692191  51.8058810  43.1030852  72.1890408
  52.7086057  43.1354462  72.5056903  51.5796180  42.1731303  72.2036743
  53.5612412  41.8561839  68.8500486  52.6108043  41.8563700  68.7364859
  53.8644898  41.1094573  68.3336521  57.4474968  19.7735725  65.0178666
  56.6807363  19.2194212  65.1635349  57.8585673  19.8457594  65.8792818
  49.4516729  26.0620521  79.1083848  50.3148190  25.7057325  79.3187172
  48.8782139  25.7234415  79.7959252  69.2965106  47.6922377  69.9146249
  69.9343516  47.5729124  69.2109589  69.1785949  48.6403221  69.9734201
  66.1054812  47.6449805  69.8507773  65.7673323  47.5290870  68.9628308
  66.9744580  47.2440970  69.8308780  61.9641628  49.4985281  65.8404664
  61.4006493  49.4075218  65.0720952  61.8494023  48.6785186  66.3207157
  66.5874595  48.7984657  75.8093979  66.5763236  48.4037455  74.9374483
  66.7495234  48.0650729  76.4027750  59.5106060  50.9936473  68.6788885
  60.3027351  50.6527298  68.2635184  59.7502710  51.1031448  69.5991038
  61.4696813  50.2545386  61.5506264  62.2427690  49.7074373  61.4119139
  61.8222212  51.1189636  61.7620725  63.3081856  51.5821769  74.7573163
  63.0171722  52.4867399  74.6419829  63.9438840  51.6238296  75.4717232
  64.2338063  48.9598617  71.3474523  64.8301635  48.7354640  70.6331485
  64.2913034  48.2183363  71.9499970  63.8063091  46.4138052  59.1824713
  64.0588612  45.8919574  58.4208176  62.8687650  46.2504198  59.2851397
  68.8506374  45.4173831  66.9899457  69.6369463  44.9993254  66.6389874
  69.1145078  46.3219923  67.1581105  63.5259380  48.3166158  61.3849088
  63.4095638  47.6411062  62.0530173  63.6361640  47.8298532  60.5681241
  65.8690921  47.7776306  65.0895778  65.5049128  47.2506926  65.8008699
  66.7258037  47.3874775  64.9162263  71.7740222  39.0670638  72.3527044
  71.4423546  39.9366049  72.1288259  71.1785835  38.7506922  73.0321074
  65.5096408  42.8066205  60.0857126  65.6770810  43.6746442  60.4527597
  65.3193577  42.9693487  59.1618415  68.2671741  51.2683184  71.7522957
  67.9672464  52.1708223  71.6438764  67.9222801  51.0015367  72.6044109
  61.7184223  47.7196981  67.7859661  60.7934719  47.5873195  67.9937353
  61.9668636  48.4991200  68.2829603  71.6668885  43.7865724  69.4320394
  70.7585762  43.7181133  69.1379155  71.6156481  44.2637669  70.2602219
  65.4885629  45.2623863  61.0703793  65.3685254  45.7080913  61.9089273
  64.7938217  45.6109180  60.5117331  59.0793034  47.3630255  68.6203450
  59.2085415  47.6164733  69.5342862  58.3990485  47.9557963  68.3008105
  65.7409751  45.2055370  77.3755291  64.9643085  45.7649290  77.3658156
  66.3800314  45.6912153  77.8970161  73.5330531  41.9882163  71.2098268
  72.8904912  42.2814696  70.5638062  73.0285460  41.8735083  72.0151464
  71.1870695  45.7345336  61.8984127  72.0988551  45.9672723  61.7231825
  70.6780342  46.3182380  61.3359206  63.9956123  48.0140823  76.9373258
  64.7370807  48.5525867  76.6608082  63.2893108  48.6407112  77.0944810
  65.8242533  45.0942570  72.9078977  66.6703728  45.5181984  73.0513626
  65.7641170  44.4376195  73.6017540  68.9741978  42.7546939  74.5660150
  68.7302910  43.5088999  74.0294426  69.2501909  43.1332286  75.4007397
  68.5306670  41.9103372  70.1473988  67.6691149  42.2084625  70.4390726
  68.5569104  42.1273771  69.2155021  65.3468239  50.4545562  66.5547794
  65.8106585  50.7333265  65.7652416  65.0825037  49.5529007  66.3720884
  62.2392320  50.0017044  69.4927557  62.8093677  50.4304312  68.8545041
  62.8300432  49.7199629  70.1911743  64.2837125  46.5768715  63.3637359
  64.9861169  47.0289758  63.8311285  63.9517754  45.9352534  63.9917252
  62.7317487  45.1680471  77.7388568  62.1016147  45.8496752  77.9723965
  62.6253575  45.0563553  76.7941706  58.0262459  44.8352267  68.6654492
  57.2361513  45.0909796  68.1894603  58.5173707  45.6500605  68.7706533
  59.9777205  45.1996847  65.6237969  59.1808368  45.3115541  66.1421465
  59.7502797  45.5383499  64.7578860  65.8082872  51.7241550  73.5720484
  65.8727305  52.1861957  74.4078656  65.0993796  51.0938915  73.7002794
  56.3100162  45.0882758  71.0969483  56.5608201  45.9729768  71.3627059
  56.8459711  44.9087359  70.3244575  62.0098230  39.4701237  80.1013819
  61.6165175  38.9167436  80.7761463  62.8264370  39.7811816  80.4920337
  58.9760287  50.9085095  64.0127389  59.4884808  51.7028346  64.1632954
  59.6283000  50.2111386  63.9460991  64.9266190  40.8859116  77.6934076
  65.6675904  41.4866269  77.6138538  65.1584113  40.1436754  77.1352118
  60.0707529  46.0715484  75.9712305  59.9561044  45.1700741  76.2719404
  59.2152046  46.3179180  75.6197122  61.9086487  55.5429026  72.0960485
  62.4593913  55.4146089  71.3237479  61.0697963  55.8423915  71.7455377
  65.7053658  51.8080153  76.4404716  66.2381995  51.0468442  76.2104024
  65.1767740  51.5153805  77.1828870  68.8723353  36.9140219  71.9698357
  68.5287623  37.8041861  71.8937468  69.2402316  36.7241877  71.1067942
  56.9409204  49.2373750  64.7886960  57.7784426  49.6470758  64.5720667
  57.1187472  48.2973192  64.7587153  68.8373636  46.9048830  60.4770793
  68.3220260  47.6753435  60.7159180  68.5650945  46.2313967  61.1003854
  66.4220747  41.7498531  65.5356031  65.5662344  41.3605382  65.3561670
  66.8347699  41.8290492  64.6755816  67.9519894  39.2844874  69.9347591
  67.4484689  39.2475010  69.1215396  68.2450501  40.1937617  69.9944247
  64.1962780  39.3683604  68.9413772  65.0615776  39.1726413  68.5819662
  64.2640289  39.1393956  69.8683129  68.6259939  44.7775923  62.3030574
  68.3210075  45.0922072  63.1540717  69.5790381  44.8557342  62.3457907
  61.8025099  41.5985812  66.3130139  62.3768851  41.3760994  65.5803332
  62.3896081  41.6674507  67.0658741  62.1294686  43.6290273  60.3326025
  61.2931998  43.9664960  60.6535299  61.9899456  43.4939253  59.3953161
  64.1047767  38.4727061  65.0405209  63.4512179  38.1576078  64.4161823
  64.0628241  37.8502801  65.7665032  65.2158971  48.7546356  56.9558501
  64.3086033  48.5235610  57.1549650  65.7130003  47.9583975  57.1432482
  67.3385507  44.9608995  69.3652856  66.4208068  45.1823942  69.2074544
  67.7545650  45.0355305  68.5064564  68.1220555  46.3600410  64.4955537
  68.8692374  46.8721807  64.1862659  68.3912144  46.0384463  65.3559930
  66.3947205  48.8558951  61.4782491  65.4858424  48.5717984  61.5754961
  66.4242289  49.2758030  60.6185798  70.5699392  43.3957526  66.4774326
  69.8322149  42.8834913  66.8084568  70.8226165  42.9557908  65.6657603
  70.6711019  36.1733778  67.0716095  70.9769896  35.3131142  66.7842010
  71.3963624  36.7651399  66.8715089  56.9635375  46.5764465  65.4597693
  56.7659775  45.9833826  64.7348760  56.4082039  46.2716675  66.1773632
  64.9432099  46.4687572  67.5792286  64.9980709  45.5161408  67.5034763
  64.1323301  46.6247011  68.0633585  66.0923293  50.3967695  58.8170569
  65.6542723  49.6803554  58.3576207  66.8333733  50.6243809  58.2555661
  62.8824459  45.0864631  65.3382665  62.0692324  45.3858802  65.7447857
  63.3783453  44.6920320  66.0557147  68.4798670  45.5506456  74.1697559
  68.8348058  45.7777929  75.0292025  69.1270802  45.8824833  73.5474814
  62.3738534  42.6582987  70.9543900  63.0137913  42.5171746  70.2566863
  61.5416064  42.3717500  70.5782502  67.9693682  54.3403513  71.4191260
  68.0230704  54.9094449  72.1868976  67.1008463  54.5105398  71.0545297
  59.4581601  46.1028499  63.1438645  58.5279189  46.0412954  63.3608607
  59.5539073  45.5804452  62.3475286  59.3767150  42.6283312  65.7316887
  59.6373967  43.5428645  65.6226047  60.1984322  42.1607754  65.8813500
  60.8492075  44.0421069  72.9015711  61.5215129  43.8338431  72.2528360
  60.0221862  43.8443155  72.4620944  66.7517647  40.6683010  74.9181372
  66.1045562  41.3672960  74.8245849  67.5218663  41.1019154  75.2857620
  66.9281782  48.5063775  72.9778192  67.8573842  48.6574934  72.8047159
  66.5072812  48.5947796  72.1226838  65.7270113  52.5314439  70.7476730
  65.5881199  52.1633224  71.6202668  64.9384710  53.0462079  70.5760687
  67.2775329  51.9096042  68.1365567  66.9425161  51.8696812  69.0323217
  66.7779274  51.2440758  67.6635978  61.2519573  47.3163672  73.6618149
  61.1139370  46.5843911  74.2629688  62.1624496  47.2272572  73.3802336
  70.2134520  49.2552076  58.4102627  69.5963691  48.5298904  58.3135680
  69.7451009  50.0161437  58.0669701  63.8801873  47.0283631  73.1501828
  64.5901492  46.3876823  73.1088447  63.8371181  47.2796526  74.0728009
  62.5930807  44.0148849  74.9697468  62.0568164  43.5639588  75.6219064
  62.0047516  44.1494758  74.2267932  62.0033066  43.4737501  57.5323931
  61.1262532  43.3526301  57.1686178  62.4790819  42.6823579  57.2802820
  53.5235206  48.2614660  67.6265438  54.2106246  47.9476390  67.0386454
  53.3683335  49.1656025  67.3532690  58.3269928  43.1504857  72.0550462
  58.2428117  42.5430526  71.3200872  57.5052635  43.6413875  72.0559958
  68.4993642  41.6358420  67.4220657  68.9962342  40.8828383  67.1021727
  67.7280624  41.6722737  66.8563867  65.0828611  43.7775803  67.1492342
  64.7126399  43.2246844  67.8373247  65.5787703  43.1733937  66.5967342
  62.9117810  54.2373298  74.2447360  63.6127269  54.8709781  74.3976754
  62.4412925  54.5788030  73.4842999  70.9412637  38.6028014  69.5700016
  70.0275717  38.8332241  69.7382223  71.3705739  38.6866458  70.4214048
  66.7606669  47.5337717  78.5565947  66.0847306  47.4331846  79.2268322
  67.5834302  47.3776931  79.0201944  58.5085528  53.7709653  71.1778462
  59.0938964  53.0253341  71.3106367  58.3110366  54.0813610  72.0615126
  53.1003182  46.3415254  69.8982906  53.1387282  45.8078844  70.6920024
  52.5943475  45.8150459  69.2793883  60.4793945  41.1879794  73.3945448
  60.5435271  42.0494625  72.9822846  60.4161065  40.5753796  72.6617806
  59.9546217  43.2602927  77.0418482  60.5818256  42.8780004  77.6556006
  59.0974136  43.0417129  77.4074175  56.7311760  45.0679356  62.9736837
  57.0265201  44.1590034  62.9203891  55.8299796  45.0467095  62.6517839
  60.2606007  43.1435352  68.9564386  59.5392593  43.7571320  68.8171859
  61.0499263  43.6793117  68.8781031  63.0632320  40.4789779  75.2305037
  63.5866722  40.7252075  75.9931347  62.8444654  41.3109814  74.8108175
  58.4599602  42.7493453  63.0976162  58.1312308  41.8690832  62.9151268
  58.8138972  42.6941122  63.9852551  61.5741425  43.0366423  63.4651640
  61.9137497  43.5652345  62.7430248  62.0213545  43.3746829  64.2410206
  64.2684866  41.4203474  72.9154708  63.9281686  40.6211287  73.3175388
  63.5623872  41.7205185  72.3431541  64.9201337  38.5052786  71.3682031
  65.7427407  38.0313265  71.2460921  65.1639401  39.2843270  71.8680717
  63.5609572  41.5341045  61.6644933  64.2817934  41.9122298  61.1608649
  62.9374876  42.2529922  61.7679910  67.7040695  42.2386194  62.6003265
  67.9204309  43.1210832  62.2992093  67.2234762  41.8472407  61.8708907
  62.4439916  45.1971907  69.1774009  62.2984497  45.5112210  70.0698291
  61.9665120  45.8156807  68.6244908  64.3036299  42.1874455  69.2254899
  64.2897868  41.2915548  68.8887197  65.0208727  42.1945119  69.8593185
  66.1562430  42.6211795  71.2708026  65.8980208  43.5428866  71.2692357
  65.6247470  42.2242230  71.9608491  56.9185578  47.7377251  72.1161671
  56.3739046  48.5137059  72.2481945  57.7964928  48.0848056  71.9580792
  63.7073195  41.0688835  64.4942469  63.8289106  40.1405482  64.6933357
  63.4175237  41.0827521  63.5820785  66.5764385  38.7543746  67.6309189
  66.5986082  38.8183079  66.6761169  66.9932444  37.9148254  67.8249695
  57.7051600  46.8647148  75.0091828  56.9633336  47.0129783  75.5956458
  57.3844344  47.1255413  74.1458577  65.6495263  56.4063126  74.8072218
  65.9582389  56.1612273  75.6794917  66.4470745  56.6109764  74.3191088
  58.1508214  54.7512576  67.0402222  58.9766234  54.4516348  66.6600866
  57.8002266  53.9820199  67.4892011  56.3516819  52.6698903  67.9991156
  55.5148727  52.2421077  67.8175157  56.3240464  52.8631346  68.9361947
  63.1914274  42.5820833  78.7032402  63.2402430  43.4582955  78.3210171
  63.7336789  42.0398226  78.1304045  62.6803254  52.6542968  62.5858356
  62.8291374  53.3378432  61.9325029  63.4869697  52.6348058  63.1007812
  71.0870758  45.9585350  76.6125574  71.9880620  45.8191815  76.3209572
  71.1618732  46.1239805  77.5523752  65.4213563  43.3352205  75.4578760
  64.5516872  43.6285771  75.1861349  65.6573043  43.9192650  76.1786024
  60.4355887  48.6808146  63.5919425  60.1901929  47.7770476  63.7899635
  60.6051801  48.6825296  62.6498903  68.1252597  39.5531822  72.9744181
  68.6434541  40.2892849  72.6490669  67.7707730  39.8595815  73.8090940
  59.7051534  44.4136503  61.0905587  59.0120779  44.4880858  60.4345623
  59.4603286  43.6496847  61.6127104  68.3765191  35.9732105  68.4945077
  68.6566945  35.3055294  69.1205504  69.1615798  36.1661200  67.9819741
  70.2688429  41.4805322  72.4276053  69.6738361  41.7610334  71.7322542
  69.9838125  41.9699223  73.1992795  72.0283936  54.7494119  58.1482634
  71.9497567  54.4153983  59.0418391  72.8493603  55.2415887  58.1474106
  66.5645458  46.4851911  57.3986156  67.5104563  46.3558119  57.4674574
  66.1859703  45.7466573  57.8755584  72.5367342  38.1507917  67.3613048
  72.3392164  37.8423005  68.2456380  73.1467048  38.8769556  67.4910978
  66.4484150  50.5369657  78.8586813  67.3687160  50.7148256  79.0526860
  66.4133733  49.5925703  78.7066512  64.7488375  44.4101888  57.3341041
  63.8419830  44.1135000  57.4103755  65.0264356  44.1131706  56.4675328
  55.6666315  45.7308251  67.7840088  55.3469100  44.8773559  67.4914462
  55.1199744  45.9456829  68.5398055  59.4446223  48.4470692  71.5009594
  59.6632233  49.3787800  71.5197628  59.8571997  48.0878666  72.2864398
  66.3650441  38.9538777  63.4885283  65.5551169  38.6085862  63.8640529
  67.0534858  38.6446321  64.0772894  68.2940989  38.0316824  65.1109579
  68.8472028  38.4512278  65.7699602  68.5311075  37.1052572  65.1532535
  64.3174088  44.0203898  80.8912343  64.2170815  44.9698255  80.8224434
  64.0995630  43.6922137  80.0188413  63.5187160  41.2688823  57.4753021
  64.3806324  41.5943721  57.7348838  63.7037504  40.4820319  56.9626086
  55.5354575  49.3511162  69.7533209  54.8418047  48.9365115  69.2403164
  56.2827566  49.3931699  69.1566628  71.6719796  40.1417349  64.6188244
  71.0918465  40.8002153  64.2366296  71.4055729  39.3194694  64.2075661
  70.1223363  39.5422407  66.8209564  70.6223141  39.6538942  66.0123883
  70.7658970  39.2383460  67.4610372  64.1805358  47.4501037  79.7077405
  63.6972440  48.2501397  79.9141294  64.2666297  47.4608981  78.7544849
  57.4491318  49.2829416  67.6299224  57.4262006  49.3817104  66.6781107
  57.7591954  50.1294567  67.9516390  60.1078696  51.3405571  71.7445839
  61.0621949  51.3089514  71.6775770  59.9091219  50.8796195  72.5596065
  60.6978078  49.9106687  74.3116636  61.5170967  50.4050766  74.3351474
  60.9714886  48.9938655  74.2834204  70.4544674  42.3017440  63.6744592
  69.5670529  42.5867090  63.4564787  70.8698663  42.1411203  62.8271869
  73.8059210  42.3263961  67.3898931  74.5819600  42.8160413  67.6623548
  73.0807344  42.7522015  67.8470801  58.4628925  56.8825191  68.7616037
  58.3283393  56.1225592  68.1954035  58.0460987  57.6066091  68.2944825
  69.5987888  52.0662114  57.7692612  70.3023738  52.2712117  58.3850267
  68.8750536  52.6338876  58.0341695  70.4285698  47.8171976  63.8894882
  70.3720899  48.2740527  63.0502514  70.9814040  47.0562660  63.7117725
  71.1620477  49.0076757  61.1847411  71.1069281  48.8421028  60.2435855
  70.5366533  49.7152790  61.3409601  55.9512992  44.2444821  75.0108833
  56.5971856  43.7343775  75.4996059  55.7430143  44.9813503  75.5852259
  68.4766384  51.3125669  80.5100974  69.3457544  51.4866321  80.1487609
  67.9973136  52.1320086  80.3876703  64.4716603  38.5084866  60.7632730
  64.4595273  39.4526706  60.9201000  65.3640025  38.3255011  60.4692191
  62.6452565  58.4322770  72.1890408  63.5479811  58.4646380  72.5056903
  62.4189935  57.5023221  72.2036743  68.2868722  35.1027642  65.0178666
  67.5201118  34.5486129  65.1635349  68.6979427  35.1749511  65.8792818
  60.2910483  41.3912438  79.1083848  61.1541945  41.0349243  79.3187172
  59.7175894  41.0526333  79.7959252  90.9726016  63.8488173  67.7644745
  90.2189725  63.2795571  67.6088749  91.1073558  63.8150837  68.7115379
  77.9893121  69.3425142  77.5699806  77.5456975  68.5561520  77.2520711
  78.6510334  69.5304292  76.9043697  80.0874359  69.6227942  75.5981207
  80.0692834  70.4436823  75.1061477  81.0094279  69.4982017  75.8231349
  85.0759541  66.0693336  69.8858160  85.5096048  65.9768625  70.7341214
  85.7891122  66.0450837  69.2478176  80.9990200  66.2623780  77.9931926
  80.8475706  66.0334331  77.0762009  80.9894879  67.2194381  78.0063271
  82.7082406  69.2942902  76.0708407  82.6494953  68.6102122  75.4038990
  83.1101925  70.0361892  75.6189033  72.8426821  58.8029418  57.5323931
  71.9656287  58.6818219  57.1686178  73.3184574  58.0115497  57.2802820
  82.7099814  67.2582486  74.3022387  81.8226592  66.9208408  74.4248786
  83.2798365  66.5265517  74.5391152  78.6999651  71.8170773  73.4241789
  79.4127623  72.4518237  73.3517690  78.2089679  71.9134639  72.6081791
  81.1934080  68.9957820  78.6472218  81.7373984  69.6087778  78.1527172
  80.6120925  69.5537398  79.1639231  76.4889017  71.7355044  74.8072218
  76.7976144  71.4904190  75.6794917  77.2864499  71.9401682  74.3191088
  84.5162875  68.4553874  77.9833539  83.7258418  68.4378012  77.4438038
  84.2796229  68.9942167  78.7382575  86.1378947  67.7243282  75.5408289
  85.8463755  68.0873262  76.3771750  85.5251078  67.0110290  75.3621621
  87.3374629  65.2896161  68.0610859  88.1721520  65.7285965  68.2248420
  87.4733758  64.8134815  67.2419105  91.3832431  64.0063783  70.4964989
  92.1135820  63.7449071  71.0572692  90.7739377  63.2692505  70.5367057
  74.3580914  56.5980740  57.4753021  75.2200078  56.9235639  57.7348838
  74.5431258  55.8112236  56.9626086  90.9752615  78.3506212  69.9146249
  91.6131025  78.2312960  69.2109589  90.8573458  79.2987056  69.9734201
  87.7842321  78.3033640  69.8507773  87.4460832  78.1874705  68.9628308
  88.6532089  77.9024806  69.8308780  83.6429137  80.1569117  65.8404664
  83.0794002  80.0659054  65.0720952  83.5281532  79.3369021  66.3207157
  88.2662104  79.4568492  75.8093979  88.2550745  79.0621290  74.9374483
  88.4282743  78.7234565  76.4027750  81.1893569  81.6520308  68.6788885
  81.9814860  81.3111133  68.2635184  81.4290219  81.7615283  69.5991038
  89.2228695  83.8240085  61.1519129  88.5716675  84.4094165  60.7653143
  90.0173058  84.3546279  61.2114167  83.1484322  80.9129222  61.5506264
  83.9215198  80.3658209  61.4119139  83.5009721  81.7773471  61.7620725
  84.9869365  82.2405604  74.7573163  84.6959231  83.1451235  74.6419829
  85.6226349  82.2822132  75.4717232  85.9125572  79.6182452  71.3474523
  86.5089144  79.3938475  70.6331485  85.9700543  78.8767198  71.9499970
  90.5293883  76.0757666  66.9899457  91.3156972  75.6577089  66.6389874
  90.7932587  76.9803758  67.1581105  90.7003960  81.5130516  61.6888114
  90.0649793  81.5865143  62.4009018  90.3701367  82.1024115  61.0107193
  95.9302310  76.0132899  67.8932435  96.6627482  75.4432116  68.1270265
  95.1741666  75.6254500  68.3338941  85.2046889  78.9749994  61.3849088
  85.0883147  78.2994897  62.0530173  85.3149149  78.4882368  60.5681241
  87.5478430  78.4360141  65.0895778  87.1836637  77.9090762  65.8008699
  88.4045546  78.0458610  64.9162263  93.4527731  69.7254473  72.3527044
  93.1211055  70.5949884  72.1288259  92.8573344  69.4090757  73.0321074
  89.9459250  81.9267019  71.7522957  89.6459973  82.8292058  71.6438764
  89.6010310  81.6599203  72.6044109  83.3971732  78.3780816  67.7859661
  82.4722228  78.2457030  67.9937353  83.6456145  79.1575036  68.2829603
  93.3456394  74.4449560  69.4320394  92.4373271  74.3764968  69.1379155
  93.2943990  74.9221505  70.2602219  87.1673138  75.9207698  61.0703793
  87.0472763  76.3664749  61.9089273  86.4725726  76.2693016  60.5117331
  80.7580543  78.0214090  68.6203450  80.8872924  78.2748569  69.5342862
  80.0777994  78.6141798  68.3008105  84.9280030  88.6911340  64.7193924
  84.8504060  89.6419165  64.7982405  84.3241674  88.3457212  65.3768851
  87.4197260  75.8639205  77.3755291  86.6430594  76.4233125  77.3658156
  88.0587823  76.3495988  77.8970161  95.2118040  72.6465998  71.2098268
  94.5692421  72.9398531  70.5638062  94.7072969  72.5318918  72.0151464
  92.8658204  76.3929171  61.8984127  93.7776060  76.6256558  61.7231825
  92.3567851  76.9766215  61.3359206  85.6743632  78.6724659  76.9373258
  86.4158316  79.2109703  76.6608082  84.9680617  79.2990947  77.0944810
  91.1498972  80.8153799  75.5345420  91.5582328  80.3736210  74.7900052
  90.4276233  80.2406427  75.7879613  87.5030042  75.7526406  72.9078977
  88.3491237  76.1765819  73.0513626  87.4428679  75.0960030  73.6017540
  91.4727786  81.3754990  69.2897709  90.8436649  81.5400704  68.5873776
  91.0853448  81.7896599  70.0608673  95.3517018  82.3109428  66.6442072
  94.6668056  82.6908329  66.0939106  95.4360868  82.9204754  67.3774020
  90.6529487  73.4130774  74.5660150  90.4090419  74.1672835  74.0294426
  90.9289418  73.7916122  75.4007397  92.6067950  79.9569387  73.2437416
  92.8184845  80.6001146  72.5671797  92.5597698  79.1231703  72.7759346
  90.2094179  72.5687207  70.1473988  89.3478658  72.8668461  70.4390726
  90.2356613  72.7857606  69.2155021  87.0255748  81.1129398  66.5547794
  87.4894094  81.3917101  65.7652416  86.7612546  80.2112842  66.3720884
  83.9179829  80.6600879  69.4927557  84.4881186  81.0888148  68.8545041
  84.5087941  80.3783464  70.1911743  85.9624634  77.2352550  63.3637359
  86.6648678  77.6873594  63.8311285  85.6305263  76.5936369  63.9917252
  84.4104996  75.8264307  77.7388568  83.7803656  76.5080588  77.9723965
  84.3041084  75.7147388  76.7941706  79.7049968  75.4936103  68.6654492
  78.9149022  75.7493631  68.1894603  80.1961216  76.3084441  68.7706533
  93.7213778  82.8341342  71.4159773  94.5431221  82.4321529  71.1342455
  93.7176181  82.7309576  72.3675889  81.6564714  75.8580682  65.6237969
  80.8595877  75.9699376  66.1421465  81.4290306  76.1967334  64.7578860
  87.4870381  82.3825385  73.5720484  87.5514814  82.8445793  74.4078656
  86.7781305  81.7522750  73.7002794 101.8119771  79.1780090  67.7644745
 101.0583479  78.6087489  67.6088749 101.9467312  79.1442755  68.7115379
  87.2018399  84.0493493  63.4399464  87.0664074  84.8945029  63.8684312
  87.7428211  84.2512770  62.6765398  83.6885738  70.1285073  80.1013819
  83.2952684  69.5751271  80.7761463  84.5051879  70.4395651  80.4920337
  80.6547796  81.5668931  64.0127389  81.1672317  82.3612181  64.1632954
  81.3070509  80.8695221  63.9460991  82.4642681  84.6834687  66.0950142
  82.6409309  85.6052652  65.9071126  83.2599514  84.3693106  66.5244522
  86.6053699  71.5442952  77.6934076  87.3463413  72.1450105  77.6138538
  86.8371622  70.8020590  77.1352118  81.7495037  76.7299319  75.9712305
  81.6348553  75.8284576  76.2719404  80.8939555  76.9763016  75.6197122
  88.8286875  84.6717059  77.5699806  88.3850729  83.8853438  77.2520711
  89.4904089  84.8596210  76.9043697  83.5873996  86.2012861  72.0960485
  84.1381422  86.0729924  71.3237479  82.7485472  86.5007750  71.7455377
  90.9268113  84.9519859  75.5981207  90.9086589  85.7728740  75.1061477
  91.8488033  84.8273934  75.8231349  87.3841167  82.4663989  76.4404716
  87.9169504  81.7052277  76.2104024  86.8555249  82.1737641  77.1828870
  90.5510862  67.5724055  71.9698357  90.2075132  68.4625696  71.8937468
  90.9189825  67.3825712  71.1067942  78.6196713  79.8957585  64.7886960
  79.4571935  80.3054593  64.5720667  78.7974981  78.9557027  64.7587153
  90.5161145  77.5632666  60.4770793  90.0007769  78.3337270  60.7159180
  90.2438454  76.8897802  61.1003854  88.1008256  72.4082367  65.5356031
  87.2449853  72.0189217  65.3561670  88.5135208  72.4874327  64.6755816
  89.6307403  69.9428710  69.9347591  89.1272198  69.9058845  69.1215396
  89.9238010  70.8521453  69.9944247  95.4895419  80.3165020  62.4123966
  94.7124862  79.9776180  61.9679128  96.1686900  80.3217644  61.7378931
  90.3047448  75.4359758  62.3030574  89.9997584  75.7505907  63.1540717
  91.2577890  75.5141178  62.3457907  88.7493880  81.5949981  63.9523528
  88.2215242  80.8602741  63.6396765  88.2481383  82.3724658  63.7063496
  93.7286726  79.7899002  69.0690574  93.0710401  80.4798263  69.1570703
  94.5327125  80.1795434  69.4124560  92.5392185  78.1443374  67.1194516
  93.0524067  78.7773366  67.6216226  93.1893409  77.5444570  66.7537876
  85.7835275  69.1310896  65.0405209  85.1299688  68.8159914  64.4161823
  85.7415750  68.5086637  65.7665032  86.8946480  79.4130191  56.9558501
  85.9873542  79.1819445  57.1549650  87.3917512  78.6167811  57.1432482
  89.8014559  88.1227699  59.8755187  89.1276258  88.4259395  60.4840145
  90.1880381  88.9256779  59.5260644  89.0173016  75.6192830  69.3652856
  88.0995577  75.8407777  69.2074544  89.4333159  75.6939140  68.5064564
  89.8008064  77.0184246  64.4955537  90.5479883  77.5305643  64.1862659
  90.0699653  76.6968298  65.3559930  88.0734714  79.5142786  61.4782491
  87.1645933  79.2301819  61.5754961  88.1029798  79.9341865  60.6185798
  93.3053981  83.1249376  65.2473658  92.8516308  82.2840286  65.3038849
  92.6747948  83.7610774  65.5848439  92.2486901  74.0541362  66.4774326
  91.5109658  73.5418748  66.8084568  92.5013674  73.6141743  65.6657603
  91.7486920  84.9625872  66.1823477  92.0409895  85.5230930  65.4635842
  92.2585541  85.2554433  66.9376636  92.3498528  66.8317614  67.0716095
  92.6557405  65.9714977  66.7842010  93.0751133  67.4235234  66.8715089
  78.6422884  77.2348300  65.4597693  78.4447284  76.6417661  64.7348760
  78.0869548  76.9300511  66.1773632  86.6219608  77.1271407  67.5792286
  86.6768218  76.1745243  67.5034763  85.8110810  77.2830846  68.0633585
  87.7710802  81.0551530  58.8170569  87.3330232  80.3387389  58.3576207
  88.5121242  81.2827645  58.2555661  84.5611968  75.7448467  65.3382665
  83.7479833  76.0442637  65.7447857  85.0570962  75.3504155  66.0557147
  86.7120546  85.7406224  67.2716930  86.6696724  85.9667070  66.3425462
  87.6283244  85.5069598  67.4202731  90.1586179  76.2090291  74.1697559
  90.5135567  76.4361764  75.0292025  90.8058311  76.5408668  73.5474814
  95.8883916  79.3308727  64.8746888  95.7501815  79.5210323  63.9468077
  95.5320135  80.0928110  65.3314939  84.0526042  73.3166822  70.9543900
  84.6925422  73.1755581  70.2566863  83.2203573  73.0301336  70.5782502
  95.9153296  81.3985254  69.8858160  96.3489803  81.3060543  70.7341214
  96.6284877  81.3742754  69.2478176  84.8286346  82.6169253  67.0678892
  85.6226945  82.1219573  66.8661467  84.1178039  82.0887116  66.7046598
  89.6481191  84.9987348  71.4191260  89.7018213  85.5678284  72.1868976
  88.7795972  85.1689233  71.0545297  81.1369110  76.7612334  63.1438645
  80.2066698  76.6996790  63.3608607  81.2326582  76.2388287  62.3475286
  82.5279584  74.7004904  72.9015711  83.2002638  74.4922266  72.2528360
  81.7009371  74.5026990  72.4620944  96.7768846  81.4408955  72.4191045
  96.9704736  82.3454765  72.6650320  96.6769464  80.9816374  73.2529630
  88.4305156  71.3266845  74.9181372  87.7833071  72.0256795  74.8245849
  89.2006172  71.7602989  75.2857620  91.8383954  81.5915697  77.9931926
  91.6869461  81.3626249  77.0762009  91.8288634  82.5486299  78.0063271
  88.6069291  79.1647610  72.9778192  89.5361351  79.3158770  72.8047159
  88.1860321  79.2531631  72.1226838  87.4057622  83.1898275  70.7476730
  87.2668708  82.8217059  71.6202668  86.6172219  83.7045914  70.5760687
  88.0005774  88.2907371  62.0902266  88.1757530  87.8195414  62.9047889
  87.3138562  88.9173137  62.3183527  88.9562838  82.5679877  68.1365567
  88.6212670  82.5280647  69.0323217  88.4566783  81.9024593  67.6635978
  82.9307082  77.9747507  73.6618149  82.7926879  77.2427746  74.2629688
  83.8412005  77.8856407  73.3802336  91.8922029  79.9135912  58.4102627
  91.2751200  79.1882740  58.3135680  91.4238518  80.6745272  58.0669701
  85.5589382  77.6867467  73.1501828  86.2689001  77.0460659  73.1088447
  85.5158690  77.9380361  74.0728009  93.5476161  84.6234820  76.0708407
  93.4888707  83.9394040  75.4038990  93.9495679  85.3653810  75.6189033
  84.2718316  74.6732685  74.9697468  83.7355673  74.2223423  75.6219064
  83.6835025  74.8078593  74.2267932  82.5666860  91.4396734  68.8642126
  82.8063458  92.0715258  69.5421145  81.7236056  91.0884774  69.1507486
  93.5493568  82.5874404  74.3022387  92.6620347  82.2500326  74.4248786
  94.1192119  81.8557435  74.5391152  75.2022715  78.9198496  67.6265438
  75.8893755  78.6060226  67.0386454  75.0470844  79.8239860  67.3532690
  87.0794722  87.2475856  71.2683630  87.0064893  88.0530828  71.7802935
  86.6372115  87.4467822  70.4431652  86.8684501  86.4847626  64.7786452
  86.0852023  87.0269306  64.8724676  87.5677246  87.0021606  65.1780693
  90.1781151  72.2942256  67.4220657  90.6749851  71.5412218  67.1021727
  89.4068133  72.3306572  66.8563867  98.0310909  77.9982621  69.0638949
  98.0200785  78.8807337  68.6932882  97.1628288  77.6454172  68.8693486
  89.5393405  87.1462690  73.4241789  90.2521377  87.7810155  73.3517690
  89.0483434  87.2426556  72.6081791  91.2610932  81.0513943  64.9959081
  90.3267211  81.1715405  64.8263785  91.4387600  80.1486410  64.7319090
  86.7616120  74.4359639  67.1492342  86.3913908  73.8830679  67.8373247
  87.2575212  73.8317772  66.5967342  94.6483483  76.8931262  65.5309115
  95.1143935  77.7259254  65.4569417  95.0990984  76.4276244  66.2354373
  84.5905319  84.8957134  74.2447360  85.2914778  85.5293617  74.3976754
  84.1200434  85.2371865  73.4842999  92.7159714  83.2375084  62.5295267
  92.9919558  83.1231678  63.4389141  91.8464213  82.8392568  62.4907440
  92.6200146  69.2611849  69.5700016  91.7063226  69.4916076  69.7382223
  93.0493248  69.3450293  70.4214048  92.3906605  77.4501741  72.0699910
  91.7378055  77.6977649  71.4152363  92.7686984  76.6365879  71.7362387
  89.3513778  87.4861434  66.1728080  89.5336173  86.6683090  66.6355833
  90.1746764  87.7029127  65.7352970  89.6855944  86.4129620  63.4343129
  90.2143710  85.9022074  62.8213291  89.9484163  86.0972150  64.2988662
  88.4394178  78.1921552  78.5565947  87.7634815  78.0915682  79.2268322
  89.2621811  78.0360766  79.0201944  80.1873037  84.4293489  71.1778462
  80.7726473  83.6837177  71.3106367  79.9897875  84.7397446  72.0615126
  83.0411692  87.4644736  66.1940905  82.3722067  87.9490864  65.7104945
  82.9024562  87.7113957  67.1084283  87.1816960  89.4988480  72.7923563
  87.7335268  89.6620101  73.5572648  87.5223154  90.0892918  72.1203588
  82.1581454  71.8463630  73.3945448  82.2222780  72.7078460  72.9822846
  82.0948574  71.2337631  72.6617806  81.6333726  73.9186762  77.0418482
  82.2605765  73.5363839  77.6556006  80.7761645  73.7000964  77.4074175
  92.0327835  84.3249737  78.6472218  92.5767739  84.9379695  78.1527172
  91.4514680  84.8829316  79.1639231  78.4099269  75.7263191  62.9736837
  78.7052710  74.8173870  62.9203891  77.5087305  75.7050931  62.6517839
  90.3185348  87.4470455  69.7787245  90.1936487  86.6460195  69.2698191
  90.9764439  87.9416649  69.2901215  92.3820256  85.2479475  71.4066795
  91.4350592  85.1284827  71.3345122  92.7303029  84.3601973  71.4893057
  84.7419829  71.1373614  75.2305037  85.2654231  71.3835911  75.9931347
  84.5232163  71.9693649  74.8108175  80.1387111  73.4077289  63.0976162
  79.8099817  72.5274668  62.9151268  80.4926481  73.3524958  63.9852551
  89.3866689  85.0432192  67.6071148  89.2391652  84.1148899  67.7878718
  90.2120183  85.0652282  67.1228223  83.2528934  73.6950259  63.4651640
  83.5925006  74.2236180  62.7430248  83.7001054  74.0330665  64.2410206
  92.9900811  85.8660750  68.6936020  93.9147359  85.6603612  68.5560472
  92.8216115  85.6177151  69.6025362  85.9472375  72.0787309  72.9154708
  85.6069195  71.2795122  73.3175388  85.2411381  72.3789020  72.3431541
  86.5988846  69.1636622  71.3682031  87.4214916  68.6897100  71.2460921
  86.8426910  69.9427106  71.8680717  84.1227425  75.8555742  69.1774009
  83.9772006  76.1696045  70.0698291  83.6452629  76.4740643  68.6244908
  85.9823808  72.8458290  69.2254899  85.9685377  71.9499384  68.8887197
  86.6996236  72.8528954  69.8593185  87.8349939  73.2795631  71.2708026
  87.5767717  74.2012701  71.2692357  87.3034979  72.8826065  71.9608491
  92.7796127  86.3846418  64.0498112  92.9533005  85.8192840  63.2971964
  93.2725019  87.1847313  63.8677602  78.5973087  78.3961087  72.1161671
  78.0526555  79.1720895  72.2481945  79.4752437  78.7431891  71.9580792
  85.3860704  71.7272671  64.4942469  85.5076615  70.7989317  64.6933357
  85.0962746  71.7411357  63.5820785  88.2551894  69.4127581  67.6309189
  88.2773591  69.4766914  66.6761169  88.6719953  68.5732090  67.8249695
  98.6335519  79.1482841  65.6688412  99.0766665  78.3990166  65.2707535
  97.7562029  79.1392977  65.2862144  93.7671300  85.7013182  61.1495010
  94.4622205  86.3219875  61.3682325  94.1094450  84.8508533  61.4247388
  79.3839109  77.5230983  75.0091828  78.6420845  77.6713618  75.5956458
  79.0631853  77.7839249  74.1458577  95.6662723  83.1512888  62.6782341
  96.1914047  83.4900160  61.9531661  95.5785076  82.2159903  62.4945476
  87.3282772  87.0646961  74.8072218  87.6369898  86.8196108  75.6794917
  88.1258254  87.2693600  74.3191088  87.3503384  89.2184871  67.0377594
  86.9108374  88.7261250  67.7310451  88.1011501  88.6757839  66.7969669
  79.8295723  85.4096412  67.0402222  80.6553743  85.1100184  66.6600866
  79.4789775  84.6404034  67.4892011  84.7977256  84.7622880  69.1099896
  84.1757265  84.0993585  68.8102124  85.4682123  84.7884012  68.4273544
  78.0304328  83.3282738  67.9991156  77.1936236  82.9004913  67.8175157
  78.0027973  83.5215182  68.9361947  84.8701783  73.2404668  78.7032402
  84.9189939  74.1166791  78.3210171  85.4124298  72.6982061  78.1304045
  95.3556629  83.7845791  77.9833539  94.5652173  83.7669930  77.4438038
  95.1189984  84.3234085  78.7382575  95.4754504  80.6338258  75.2966267
  95.5252509  80.4688265  76.2381790  95.3668428  79.7665517  74.9064148
  84.3590763  83.3126803  62.5858356  84.5078883  83.9962268  61.9325029
  85.1657206  83.2931893  63.1007812  92.7658267  76.6169186  76.6125574
  93.6668129  76.4775651  76.3209572  92.8406241  76.7823641  77.5523752
  87.1001072  73.9936040  75.4578760  86.2304381  74.2869607  75.1861349
  87.3360552  74.5776485  76.1786024  96.9772701  83.0535199  75.5408289
  96.6857509  83.4165180  76.3771750  96.3644832  82.3402207  75.3621621
  98.1768383  80.6188079  68.0610859  99.0115275  81.0577883  68.2248420
  98.3127512  80.1426732  67.2419105  95.2259889  78.1767814  74.0088347
  95.7014011  78.3695460  73.2007198  94.3025455  78.2327000  73.7631731
  82.1143396  79.3391981  63.5919425  81.8689438  78.4354311  63.7899635
  82.2839310  79.3409131  62.6498903  89.8040106  70.2115657  72.9744181
  90.3222050  70.9476684  72.6490669  89.4495239  70.5179651  73.8090940
  81.3839043  75.0720339  61.0905587  80.6908288  75.1464694  60.4345623
  81.1390795  74.3080682  61.6127104  90.0552700  66.6315940  68.4945077
  90.3354454  65.9639129  69.1205504  90.8403307  66.8245036  67.9819741
  87.8586168  85.8074934  60.0570104  87.2860135  86.4265121  59.6040576
  88.4318962  86.3574296  60.5910026  93.9261558  75.0533574  72.2416653
  94.8778981  75.1531672  72.2628877  93.7565009  74.2611842  72.7514737
  91.9475938  72.1389157  72.4276053  91.3525870  72.4194170  71.7322542
  91.6625634  72.6283058  73.1992795  91.0783428  86.0912084  61.1878686
  92.0114101  86.0257646  61.3911562  90.9906641  86.9268351  60.7293219
  93.7071445  85.4077954  58.1482634  93.6285076  85.0737818  59.0418391
  94.5281112  85.8999722  58.1474106  96.4049636  78.2739694  71.3558952
  96.3725956  77.3355694  71.5418636  97.0150260  78.3523730  70.6224777
  96.5544125  75.0650737  71.4017235  96.0383173  74.2809194  71.2147164
  97.4384073  74.7369454  71.5663755  94.2154851  68.8091753  67.3613048
  94.0179673  68.5006841  68.2456380  94.8254557  69.5353392  67.4910978
 102.2226186  79.3355700  70.4964989 102.9529574  79.0740989  71.0572692
 101.6133131  78.5984422  70.5367057 100.3041483  77.4763563  71.0939440
  99.5774647  77.3419528  70.4855932  99.8888770  77.7840392  71.8996158
  88.1271659  81.1953493  78.8586813  89.0474669  81.3732092  79.0526860
  88.0921242  80.2509538  78.7066512  81.1233732  79.1054527  71.5009594
  81.3419742  80.0371635  71.5197628  81.5359506  78.7462502  72.2864398
  89.9728498  68.6900659  65.1109579  90.5259537  69.1096113  65.7699602
  90.2098584  67.7636408  65.1532535  85.9961597  74.6787733  80.8912343
  85.8958324  75.6282090  80.8224434  85.7783139  74.3505972  80.0188413
  77.2142084  80.0094998  69.7533209  76.5205556  79.5948951  69.2403164
  77.9615075  80.0515534  69.1566628  93.3507305  70.8001185  64.6188244
  92.7705974  71.4585989  64.2366296  93.0843238  69.9778529  64.2075661
  91.8010872  70.2006242  66.8209564  92.3010650  70.3122777  66.0123883
  92.4446479  69.8967295  67.4610372  85.8592867  78.1084872  79.7077405
  85.3759949  78.9085232  79.9141294  85.9453806  78.1192817  78.7544849
  79.1278827  79.9413252  67.6299224  79.1049515  80.0400939  66.6781107
  79.4379463  80.7878402  67.9516390  81.7866205  81.9989407  71.7445839
  82.7409458  81.9673349  71.6775770  81.5878728  81.5380030  72.5596065
  82.3765587  80.5690523  74.3116636  83.1958476  81.0634601  74.3351474
  82.6502395  79.6522491  74.2834204  92.1332183  72.9601275  63.6744592
  91.2458038  73.2450926  63.4564787  92.5486172  72.7995038  62.8271869
  95.4846719  72.9847796  67.3898931  96.2607109  73.4744248  67.6623548
  94.7594853  73.4105850  67.8470801  97.9219278  73.6975415  68.4472872
  98.5163769  73.4571151  67.7366180  97.9945862  72.9782546  69.0746408
  80.1416434  87.5409026  68.7616037  80.0070902  86.7809427  68.1954035
  79.7248496  88.2649926  68.2944825  91.2775397  82.7245950  57.7692612
  91.9811247  82.9295952  58.3850267  90.5538045  83.2922712  58.0341695
  92.1073207  78.4755811  63.8894882  92.0508408  78.9324362  63.0502514
  92.6601549  77.7146496  63.7117725  95.9178013  74.2645543  64.7145002
  95.6614947  73.8642178  65.5453209  95.2930881  74.9789337  64.5895141
 100.2290351  77.0041616  67.2216293  99.6689909  77.0734805  67.9947855
  99.6233854  76.8282601  66.5015789  83.2985559  88.4378343  68.9734479
  83.1817944  89.3823776  68.8713169  82.4778006  88.1351905  69.3620278
  93.1862094  83.1628479  59.8191072  94.0207698  82.7309677  59.6368547
  93.0246437  82.9910493  60.7467966  92.8407986  79.6660592  61.1847411
  92.7856790  79.5004864  60.2435855  92.2154041  80.3736625  61.3409601
  77.6300501  74.9028657  75.0108833  78.2759365  74.3927611  75.4996059
  77.4217652  75.6397338  75.5852259  90.1553893  81.9709504  80.5100974
  91.0245053  82.1450156  80.1487609  89.6760645  82.7903921  80.3876703
  84.3240074  89.0906605  72.1890408  85.2267320  89.1230215  72.5056903
  84.0977444  88.1607056  72.2036743  86.0793676  87.8437592  68.8500486
  85.1289307  87.8439453  68.7364859  86.3826162  87.0970326  68.3336521
  89.9656231  65.7611478  65.0178666  89.1988627  65.2069965  65.1635349
  90.3766936  65.8333347  65.8792818  81.9697992  72.0496274  79.1083848
  82.8329454  71.6933078  79.3187172  81.3963403  71.7110168  79.7959252
 101.8146369  93.6798130  69.9146249 102.4524779  93.5604877  69.2109589
 101.6967212  94.6278974  69.9734201  98.6236075  93.6325558  69.8507773
  98.2854587  93.5166623  68.9628308  99.4925844  93.2316723  69.8308780
  94.4822891  95.4861035  65.8404664  93.9187756  95.3950971  65.0720952
  94.3675286  94.6660939  66.3207157  99.1055858  94.7860410  75.8093979
  99.0944499  94.3913208  74.9374483  99.2676498  94.0526482  76.4027750
  92.0287323  96.9812226  68.6788885  92.8208615  96.6403051  68.2635184
  92.2683973  97.0907201  69.5991038 100.0622450  99.1532002  61.1519129
  99.4110430  99.7386083  60.7653143 100.8566813  99.6838197  61.2114167
  93.9878077  96.2421139  61.5506264  94.7608953  95.6950126  61.4119139
  94.3403476  97.1065389  61.7620725  95.8263120  97.5697522  74.7573163
  95.5352986  98.4743152  74.6419829  96.4620104  97.6114049  75.4717232
  96.7519326  94.9474370  71.3474523  97.3482899  94.7230393  70.6331485
  96.8094298  94.2059116  71.9499970  96.3244355  92.4013805  59.1824713
  96.5769875  91.8795327  58.4208176  95.3868914  92.2379951  59.2851397
 101.3687638  91.4049584  66.9899457 102.1550727  90.9869007  66.6389874
 101.6326342  92.3095676  67.1581105 101.5397715  96.8422434  61.6888114
 100.9043548  96.9157061  62.4009018 101.2095121  97.4316033  61.0107193
 106.7696065  91.3424817  67.8932435 107.5021237  90.7724034  68.1270265
 106.0135420  90.9546417  68.3338941  96.0440644  94.3041911  61.3849088
  95.9276902  93.6286815  62.0530173  96.1542903  93.8174285  60.5681241
  98.3872184  93.7652059  65.0895778  98.0230392  93.2382680  65.8008699
  99.2439300  93.3750528  64.9162263 104.2921485  85.0546391  72.3527044
 103.9604810  85.9241802  72.1288259 103.6967098  84.7382675  73.0321074
  98.0277671  88.7941958  60.0857126  98.1952074  89.6622195  60.4527597
  97.8374841  88.9569240  59.1618415 100.7853005  97.2558937  71.7522957
 100.4853728  98.1583976  71.6438764 100.4404064  96.9891120  72.6044109
  94.2365486  93.7072734  67.7859661  93.3115983  93.5748948  67.9937353
  94.4849899  94.4866953  68.2829603 104.1850148  89.7741477  69.4320394
 103.2767026  89.7056886  69.1379155 104.1337744  90.2513422  70.2602219
  98.0066892  91.2499616  61.0703793  97.8866518  91.6956667  61.9089273
  97.3119481  91.5984933  60.5117331  91.5974297  93.3506008  68.6203450
  91.7266678  93.6040486  69.5342862  90.9171748  93.9433716  68.3008105
  98.2591014  91.1931123  77.3755291  97.4824348  91.7525043  77.3658156
  98.8981577  91.6787906  77.8970161 106.0511795  87.9757916  71.2098268
 105.4086175  88.2690449  70.5638062 105.5466723  87.8610836  72.0151464
 103.7051958  91.7221089  61.8984127 104.6169815  91.9548476  61.7231825
 103.1961606  92.3058133  61.3359206  96.5137387  94.0016576  76.9373258
  97.2552071  94.5401620  76.6608082  95.8074372  94.6282865  77.0944810
 101.9892726  96.1445717  75.5345420 102.3976082  95.7028127  74.7900052
 101.2669988  95.5698344  75.7879613  98.3423796  91.0818324  72.9078977
  99.1884991  91.5057737  73.0513626  98.2822434  90.4251948  73.6017540
 102.3121541  96.7046907  69.2897709 101.6830403  96.8692622  68.5873776
 101.9247203  97.1188517  70.0608673 101.4923242  88.7422692  74.5660150
 101.2484173  89.4964752  74.0294426 101.7683172  89.1208039  75.4007397
 103.4461704  95.2861304  73.2437416 103.6578600  95.9293064  72.5671797
 103.3991453  94.4523621  72.7759346 101.0487933  87.8979125  70.1473988
 100.1872412  88.1960378  70.4390726 101.0750368  88.1149524  69.2155021
  97.8649503  96.4421315  66.5547794  98.3287848  96.7209018  65.7652416
  97.6006301  95.5404760  66.3720884  94.7573584  95.9892797  69.4927557
  95.3274941  96.4180065  68.8545041  95.3481696  95.7075382  70.1911743
  96.8018389  92.5644468  63.3637359  97.5042432  93.0165511  63.8311285
  96.4699017  91.9228287  63.9917252  95.2498750  91.1556224  77.7388568
  94.6197411  91.8372505  77.9723965  95.1434838  91.0439306  76.7941706
  90.5443723  90.8228020  68.6654492  89.7542777  91.0785549  68.1894603
  91.0354970  91.6376358  68.7706533 104.5607532  98.1633260  71.4159773
 105.3824976  97.7613447  71.1342455 104.5569935  98.0601494  72.3675889
  92.4958468  91.1872600  65.6237969  91.6989631  91.2991294  66.1421465
  92.2684060  91.5259252  64.7578860  98.3264136  97.7117303  73.5720484
  98.3908568  98.1737710  74.4078656  97.6175060  97.0814668  73.7002794
  88.8281426  91.0758511  71.0969483  89.0789464  91.9605521  71.3627059
  89.3640974  90.8963112  70.3244575  98.0412153  99.3785410  63.4399464
  97.9057828 100.2236946  63.8684312  98.5821966  99.5804688  62.6765398
  94.5279493  85.4576990  80.1013819  94.1346439  84.9043189  80.7761463
  95.3445633  85.7687569  80.4920337  91.4941551  96.8960848  64.0127389
  92.0066071  97.6904099  64.1632954  92.1464264  96.1987139  63.9460991
  93.3036435 100.0126605  66.0950142  93.4803064 100.9344569  65.9071126
  94.0993269  99.6985024  66.5244522  97.4447454  86.8734869  77.6934076
  98.1857167  87.4742023  77.6138538  97.6765377  86.1312507  77.1352118
  92.5888792  92.0591237  75.9712305  92.4742307  91.1576494  76.2719404
  91.7333310  92.3054933  75.6197122  99.6680630 100.0008977  77.5699806
  99.2244484  99.2145356  77.2520711 100.3297843 100.1888127  76.9043697
  94.4267751 101.5304779  72.0960485  94.9775176 101.4021842  71.3237479
  93.5879227 101.8299668  71.7455377  98.2234922  97.7955906  76.4404716
  98.7563259  97.0344195  76.2104024  97.6949003  97.5029558  77.1828870
 101.3904617  82.9015972  71.9698357 101.0468886  83.7917614  71.8937468
 101.7583580  82.7117630  71.1067942  89.4590468  95.2249503  64.7886960
  90.2965690  95.6346511  64.5720667  89.6368735  94.2848945  64.7587153
 101.3554900  92.8924583  60.4770793 100.8401523  93.6629188  60.7159180
 101.0832208  92.2189720  61.1003854  98.9402011  87.7374284  65.5356031
  98.0843607  87.3481135  65.3561670  99.3528962  87.8166245  64.6755816
 100.4701157  85.2720627  69.9347591  99.9665953  85.2350763  69.1215396
 100.7631764  86.1813370  69.9944247  96.7144043  85.3559357  68.9413772
  97.5797040  85.1602166  68.5819662  96.7821552  85.1269709  69.8683129
 106.3289174  95.6456938  62.4123966 105.5518617  95.3068098  61.9679128
 107.0080655  95.6509561  61.7378931 101.1441203  90.7651676  62.3030574
 100.8391338  91.0797825  63.1540717 102.0971645  90.8433095  62.3457907
  99.5887635  96.9241899  63.9523528  99.0608996  96.1894658  63.6396765
  99.0875137  97.7016575  63.7063496 104.5680481  95.1190919  69.0690574
 103.9104155  95.8090181  69.1570703 105.3720880  95.5087351  69.4124560
  94.3206362  87.5861565  66.3130139  94.8950114  87.3636747  65.5803332
  94.9077345  87.6550260  67.0658741 103.3785939  93.4735292  67.1194516
 103.8917821  94.1065284  67.6216226 104.0287163  92.8736488  66.7537876
  94.6475949  89.6166026  60.3326025  93.8113262  89.9540713  60.6535299
  94.5080719  89.4815006  59.3953161  96.6229030  84.4602814  65.0405209
  95.9693442  84.1451831  64.4161823  96.5809504  83.8378554  65.7665032
  97.7340235  94.7422109  56.9558501  96.8267297  94.5111363  57.1549650
  98.2311267  93.9459728  57.1432482  99.8566770  90.9484748  69.3652856
  98.9389332  91.1699695  69.2074544 100.2726914  91.0231058  68.5064564
 100.6401818  92.3476163  64.4955537 101.3873637  92.8597560  64.1862659
 100.9093408  92.0260216  65.3559930  98.9128468  94.8434704  61.4782491
  98.0039688  94.5593737  61.5754961  98.9423552  95.2633783  60.6185798
 104.1447736  98.4541293  65.2473658 103.6910063  97.6132203  65.3038849
 103.5141702  99.0902692  65.5848439 103.0880655  89.3833280  66.4774326
 102.3503412  88.8710666  66.8084568 103.3407429  88.9433661  65.6657603
 103.1892283  82.1609532  67.0716095 103.4951159  81.3006895  66.7842010
 103.9144887  82.7527152  66.8715089  89.4816639  92.5640218  65.4597693
  89.2841038  91.9709579  64.7348760  88.9263303  92.2592428  66.1773632
  97.4613362  92.4563325  67.5792286  97.5161972  91.5037161  67.5034763
  96.6504564  92.6122764  68.0633585  98.6104556  96.3843448  58.8170569
  98.1723986  95.6679307  58.3576207  99.3514997  96.6119562  58.2555661
  95.4005722  91.0740384  65.3382665  94.5873588  91.3734555  65.7447857
  95.8964716  90.6796073  66.0557147  97.5514300 101.0698141  67.2716930
  97.5090479 101.2958988  66.3425462  98.4676999 100.8361516  67.4202731
 100.9979934  91.5382209  74.1697559 101.3529322  91.7653682  75.0292025
 101.6452065  91.8700586  73.5474814 106.7277671  94.6600645  64.8746888
 106.5895569  94.8502241  63.9468077 106.3713890  95.4220028  65.3314939
  94.8919797  88.6458740  70.9543900  95.5319176  88.5047499  70.2566863
  94.0597328  88.3593253  70.5782502  95.6680101  97.9461170  67.0678892
  96.4620699  97.4511490  66.8661467  94.9571793  97.4179033  66.7046598
 100.4874945 100.3279266  71.4191260 100.5411968 100.8970202  72.1868976
  99.6189727 100.4981151  71.0545297  91.9762864  92.0904252  63.1438645
  91.0460452  92.0288708  63.3608607  92.0720336  91.5680205  62.3475286
  91.8948413  88.6159065  65.7316887  92.1555231  89.5304398  65.6226047
  92.7165586  88.1483507  65.8813500  93.3673339  90.0296822  72.9015711
  94.0396392  89.8214184  72.2528360  92.5403125  89.8318908  72.4620944
  99.2698911  86.6558763  74.9181372  98.6226826  87.3548713  74.8245849
 100.0399926  87.0894907  75.2857620 102.6777709  96.9207615  77.9931926
 102.5263215  96.6918167  77.0762009 102.6682388  97.8778217  78.0063271
  99.4463045  94.4939528  72.9778192 100.3755105  94.6450687  72.8047159
  99.0254075  94.5823549  72.1226838  98.2451377  98.5190192  70.7476730
  98.1062463  98.1508977  71.6202668  97.4565973  99.0337832  70.5760687
  99.7956592  97.8971795  68.1365567  99.4606425  97.8572565  69.0323217
  99.2960538  97.2316511  67.6635978  93.7700836  93.3039425  73.6618149
  93.6320634  92.5719664  74.2629688  94.6805759  93.2148325  73.3802336
 102.7315784  95.2427829  58.4102627 102.1144954  94.5174657  58.3135680
 102.2632272  96.0037190  58.0669701  96.3983137  93.0159384  73.1501828
  97.1082755  92.3752577  73.1088447  96.3552445  93.2672279  74.0728009
  95.1112071  90.0024602  74.9697468  94.5749428  89.5515341  75.6219064
  94.5228779  90.1370511  74.2267932  94.5214330  89.4613254  57.5323931
  93.6443796  89.3402054  57.1686178  94.9972083  88.6699332  57.2802820
 104.3887323  97.9166322  74.3022387 103.5014101  97.5792243  74.4248786
 104.9585874  97.1849353  74.5391152  86.0416470  94.2490413  67.6265438
  86.7287510  93.9352143  67.0386454  85.8864598  95.1531778  67.3532690
  90.8451192  89.1380610  72.0550462  90.7609381  88.5306279  71.3200872
  90.0233898  89.6289628  72.0559958  97.7078256 101.8139544  64.7786452
  96.9245778 102.3561224  64.8724676  98.4071001 102.3313524  65.1780693
 101.0174906  87.6234173  67.4220657 101.5143605  86.8704136  67.1021727
 100.2461887  87.6598490  66.8563867 108.8704663  93.3274539  69.0638949
 108.8594539  94.2099254  68.6932882 108.0022043  92.9746090  68.8693486
 102.1004686  96.3805861  64.9959081 101.1660965  96.5007323  64.8263785
 102.2781355  95.4778327  64.7319090  97.6009874  89.7651556  67.1492342
  97.2307662  89.2122597  67.8373247  98.0968967  89.1609690  66.5967342
 105.4877238  92.2223180  65.5309115 105.9537690  93.0551172  65.4569417
 105.9384738  91.7568161  66.2354373  95.4299073 100.2249051  74.2447360
  96.1308533 100.8585534  74.3976754  94.9594188 100.5663783  73.4842999
 103.5553469  98.5667001  62.5295267 103.8313313  98.4523596  63.4389141
 102.6857968  98.1684486  62.4907440 103.4593901  84.5903767  69.5700016
 102.5456980  84.8207994  69.7382223 103.8887002  84.6742211  70.4214048
 103.2300359  92.7793659  72.0699910 102.5771809  93.0269566  71.4152363
 103.6080739  91.9657797  71.7362387  99.2787932  93.5213470  78.5565947
  98.6028569  93.4207599  79.2268322 100.1015566  93.3652684  79.0201944
  91.0266791  99.7585406  71.1778462  91.6120228  99.0129094  71.3106367
  90.8291630 100.0689363  72.0615126  93.8805446 102.7936654  66.1940905
  93.2115822 103.2782782  65.7104945  93.7418316 103.0405874  67.1084283
  85.6184446  92.3291007  69.8982906  85.6568545  91.7954597  70.6920024
  85.1124739  91.8026212  69.2793883  92.9975208  87.1755547  73.3945448
  93.0616535  88.0370378  72.9822846  92.9342328  86.5629549  72.6617806
  92.4727481  89.2478680  77.0418482  93.0999519  88.8655757  77.6556006
  91.6155400  89.0292882  77.4074175  89.2493023  91.0555109  62.9736837
  89.5446465  90.1465787  62.9203891  88.3481059  91.0342848  62.6517839
  92.7787270  89.1311105  68.9564386  92.0573856  89.7447073  68.8171859
  93.5680526  89.6668870  68.8781031  95.5813584  86.4665532  75.2305037
  96.1047986  86.7127828  75.9931347  95.3625917  87.2985567  74.8108175
  90.9780865  88.7369206  63.0976162  90.6493571  87.8566585  62.9151268
  91.3320236  88.6816875  63.9852551 100.2260444 100.3724109  67.6071148
 100.0785406  99.4440817  67.7878718 101.0513937 100.3944200  67.1228223
  94.0922688  89.0242176  63.4651640  94.4318761  89.5528098  62.7430248
  94.5394809  89.3622582  64.2410206  96.7866129  87.4079227  72.9154708
  96.4462949  86.6087040  73.3175388  96.0805135  87.7080938  72.3431541
  97.4382601  84.4928539  71.3682031  98.2608670  84.0189018  71.2460921
  97.6820664  85.2719023  71.8680717  96.0790835  87.5216798  61.6644933
  96.7999198  87.8998051  61.1608649  95.4556139  88.2405675  61.7679910
 100.2221958  88.2261947  62.6003265 100.4385573  89.1086585  62.2992093
  99.7416025  87.8348160  61.8708907  94.9621180  91.1847660  69.1774009
  94.8165760  91.4987963  70.0698291  94.4846383  91.8032560  68.6244908
  96.8217562  88.1750208  69.2254899  96.8079131  87.2791301  68.8887197
  97.5389991  88.1820872  69.8593185  98.6743693  88.6087548  71.2708026
  98.4161471  89.5304619  71.2692357  98.1428734  88.2117983  71.9608491
  89.4366842  93.7253004  72.1161671  88.8920310  94.5012812  72.2481945
  90.3146192  94.0723809  71.9580792  96.2254458  87.0564588  64.4942469
  96.3470370  86.1281235  64.6933357  95.9356501  87.0703274  63.5820785
  99.0945649  84.7419499  67.6309189  99.1167346  84.8058832  66.6761169
  99.5113708  83.9024007  67.8249695 109.4729273  94.4774758  65.6688412
 109.9160419  93.7282084  65.2707535 108.5955783  94.4684895  65.2862144
  90.2232864  92.8522901  75.0091828  89.4814600  93.0005536  75.5956458
  89.9025608  93.1131166  74.1458577  90.6689477 100.7388329  67.0402222
  91.4947497 100.4392101  66.6600866  90.3183529  99.9695952  67.4892011
  95.6371010 100.0914798  69.1099896  95.0151020  99.4285503  68.8102124
  96.3075877 100.1175930  68.4273544  88.8698082  98.6574656  67.9991156
  88.0329991  98.2296830  67.8175157  88.8421728  98.8507099  68.9361947
  95.7095538  88.5696586  78.7032402  95.7583693  89.4458709  78.3210171
  96.2518052  88.0273979  78.1304045 106.3148259  95.9630175  75.2966267
 106.3646264  95.7980183  76.2381790 106.2062182  95.0957434  74.9064148
  95.1984517  98.6418721  62.5858356  95.3472638  99.3254185  61.9325029
  96.0050961  98.6223811  63.1007812 103.6052021  91.9461103  76.6125574
 104.5061884  91.8067568  76.3209572 103.6799996  92.1115558  77.5523752
  97.9394826  89.3227958  75.4578760  97.0698136  89.6161524  75.1861349
  98.1754307  89.9068403  76.1786024 106.0653644  93.5059731  74.0088347
 106.5407765  93.6987378  73.2007198 105.1419209  93.5618917  73.7631731
  92.9537150  94.6683899  63.5919425  92.7083192  93.7646229  63.7899635
  93.1233065  94.6701049  62.6498903 100.6433860  85.5407575  72.9744181
 101.1615804  86.2768602  72.6490669 100.2888993  85.8471568  73.8090940
  92.2232798  90.4012256  61.0905587  91.5302043  90.4756611  60.4345623
  91.9784550  89.6372600  61.6127104 100.8946454  81.9607858  68.4945077
 101.1748208  81.2931047  69.1205504 101.6797061  82.1536953  67.9819741
  98.6979923 101.1366851  60.0570104  98.1253890 101.7557039  59.6040576
  99.2712717 101.6866213  60.5910026 104.7655313  90.3825492  72.2416653
 105.7172736  90.4823589  72.2628877 104.5958763  89.5903760  72.7514737
 102.7869692  87.4681075  72.4276053 102.1919624  87.7486088  71.7322542
 102.5019389  87.9574976  73.1992795 107.2443391  93.6031611  71.3558952
 107.2119711  92.6647612  71.5418636 107.8544014  93.6815648  70.6224777
  99.0826721  92.4727664  57.3986156 100.0285826  92.3433872  57.4674574
  98.7040966  91.7342326  57.8755584 107.3937879  90.3942655  71.4017235
 106.8776928  89.6101111  71.2147164 108.2777828  90.0661371  71.5663755
 105.0548606  84.1383670  67.3613048 104.8573427  83.8298758  68.2456380
 105.6648312  84.8645309  67.4910978  98.9665414  96.5245410  78.8586813
  99.8868423  96.7024009  79.0526860  98.9314997  95.5801456  78.7066512
  97.2669639  90.3977641  57.3341041  96.3601094  90.1010753  57.4103755
  97.5445620  90.1007459  56.4675328  88.1847579  91.7184004  67.7840088
  87.8650363  90.8649312  67.4914462  87.6381007  91.9332582  68.5398055
  91.9627486  94.4346445  71.5009594  92.1813496  95.3663553  71.5197628
  92.3753260  94.0754419  72.2864398  98.8831704  84.9414530  63.4885283
  98.0732433  84.5961615  63.8640529  99.5716121  84.6322074  64.0772894
 100.8122253  84.0192577  65.1109579 101.3653291  84.4388031  65.7699602
 101.0492339  83.0928325  65.1532535  96.8355352  90.0079651  80.8912343
  96.7352079  90.9574008  80.8224434  96.6176894  89.6797890  80.0188413
  96.0368423  87.2564576  57.4753021  96.8987587  87.5819474  57.7348838
  96.2218767  86.4696072  56.9626086  88.0535839  95.3386916  69.7533209
  87.3599310  94.9240868  69.2403164  88.8008830  95.3807452  69.1566628
 104.1901060  86.1293102  64.6188244 103.6099729  86.7877906  64.2366296
 103.9236992  85.3070447  64.2075661 102.6404626  85.5298160  66.8209564
 103.1404404  85.6414695  66.0123883 103.2840234  85.2259213  67.4610372
  96.6986622  93.4376790  79.7077405  96.2153704  94.2377150  79.9141294
  96.7847561  93.4484735  78.7544849  89.9672581  95.2705169  67.6299224
  89.9443270  95.3692857  66.6781107  90.2773218  96.1170320  67.9516390
  92.6259959  97.3281324  71.7445839  93.5803213  97.2965267  71.6775770
  92.4272483  96.8671948  72.5596065  93.2159341  95.8982440  74.3116636
  94.0352230  96.3926519  74.3351474  93.4896149  94.9814409  74.2834204
 102.9725938  88.2893193  63.6744592 102.0851793  88.5742843  63.4564787
 103.3879927  88.1286956  62.8271869 106.3240474  88.3139714  67.3898931
 107.1000864  88.8036166  67.6623548 105.5988608  88.7397768  67.8470801
 108.7613032  89.0267333  68.4472872 109.3557523  88.7863069  67.7366180
 108.8339616  88.3074463  69.0746408  90.9810188 102.8700944  68.7616037
  90.8464656 102.1101345  68.1954035  90.5642250 103.5941844  68.2944825
 102.1169151  98.0537867  57.7692612 102.8205001  98.2587870  58.3850267
 101.3931800  98.6214629  58.0341695 102.9466961  93.8047729  63.8894882
 102.8902163  94.2616280  63.0502514 103.4995304  93.0438413  63.7117725
 106.7571767  89.5937460  64.7145002 106.5008702  89.1934096  65.5453209
 106.1324635  90.3081254  64.5895141  94.1379314 103.7670261  68.9734479
  94.0211698 104.7115693  68.8713169  93.3171760 103.4643822  69.3620278
 104.0255849  98.4920397  59.8191072 104.8601452  98.0601595  59.6368547
 103.8640191  98.3202410  60.7467966 103.6801741  94.9952510  61.1847411
 103.6250545  94.8296781  60.2435855 103.0547796  95.7028543  61.3409601
  88.4694256  90.2320574  75.0108833  89.1153119  89.7219528  75.4996059
  88.2611407  90.9689256  75.5852259  96.9897866  84.4960619  60.7632730
  96.9776536  85.4402459  60.9201000  97.8821288  84.3130764  60.4692191
  95.1633828 104.4198523  72.1890408  96.0661075 104.4522133  72.5056903
  94.9371198 103.4898974  72.2036743  96.9187430 103.1729509  68.8500486
  95.9683061 103.1731371  68.7364859  97.2219916 102.4262244  68.3336521
 100.8049986  81.0903396  65.0178666 100.0382381  80.5361882  65.1635349
 101.2160691  81.1625264  65.8792818  92.8091747  87.3788191  79.1083848
  93.6723208  87.0224996  79.3187172  92.2357157  87.0402086  79.7959252
  44.4267304  -6.0071908  56.5753080  44.0885816  -6.1230843  55.6873615
  45.2957072  -6.4080743  56.5554086  40.2854120  -4.1536431  52.5649971
  39.7218985  -4.2446494  51.7966259  40.1706515  -4.9736527  53.0452463
  44.9087087  -4.8537056  62.5339286  44.8975728  -5.2484258  61.6619789
  45.0707727  -5.5870983  63.1273057  37.8318552  -2.6585240  55.4034191
  38.6239844  -2.9994415  54.9880491  38.0715202  -2.5490265  56.3236345
  45.8653679  -0.4865464  47.8764436  45.2141658   0.0988617  47.4898450
  46.6598041   0.0440731  47.9359473  39.7909306  -3.3976326  48.2751570
  40.5640182  -3.9447339  48.1364446  40.1434705  -2.5332077  48.4866032
  41.6294348  -2.0699944  61.4818470  41.3384214  -1.1654313  61.3665136
  42.2651333  -2.0283417  62.1962539  42.5550555  -4.6923096  58.0719829
  43.1514127  -4.9167073  57.3576792  42.6125527  -5.4338350  58.6745277
  47.3428944  -2.7975032  48.4133420  46.7074777  -2.7240405  49.1254325
  47.0126350  -2.2081433  47.7352499  41.8471872  -5.3355554  48.1094395
  41.7308130  -6.0110651  48.7775479  41.9574132  -5.8223180  47.2926548
  44.1903413  -5.8745407  51.8141084  43.8261620  -6.4014786  52.5254006
  45.0470529  -6.2646938  51.6407570  46.5884233  -2.3838529  58.4768263
  46.2884957  -1.4813490  58.3684070  46.2435293  -2.6506345  59.3289416
  40.0396715  -5.9324732  54.5104968  39.1147211  -6.0648518  54.7182659
  40.2881128  -5.1530513  55.0074910  37.4005526  -6.2891458  55.3448757
  37.5297907  -6.0356979  56.2588168  36.7202977  -5.6963750  55.0253412
  41.5705013   4.3805792  51.4439231  41.4929043   5.3313617  51.5227711
  40.9666657   4.0351664  52.1014157  42.3168615  -5.6380890  63.6618565
  43.0583300  -5.0995846  63.3853388  41.6105601  -5.0114601  63.8190117
  47.7923955  -3.4951749  62.2590726  48.2007311  -3.9369339  61.5145359
  47.0701216  -4.0699122  62.5124919  48.1152770  -2.9350558  56.0143015
  47.4861632  -2.7704844  55.3119083  47.7278432  -2.5208949  56.7853979
  51.9942001  -1.9996121  53.3687379  51.3093040  -1.6197219  52.8184412
  52.0785851  -1.3900794  54.1019327  43.6680731  -3.1976150  53.2793100
  44.1319077  -2.9188447  52.4897723  43.4037530  -4.0992706  53.0966191
  40.5604813  -3.6504669  56.2172864  41.1306170  -3.2217400  55.5790348
  41.1512924  -3.9322084  56.9157049  50.3638761  -1.4764206  58.1405080
  51.1856205  -1.8784019  57.8587761  50.3601164  -1.5795972  59.0921196
  38.2989697  -8.4524866  52.3483276  37.5020860  -8.3406172  52.8666771
  38.0715289  -8.1138214  51.4824166  44.1295364  -1.9280163  60.2965790
  44.1939797  -1.4659756  61.1323962  43.4206288  -2.5582798  60.4248100
  43.8443382  -0.2612055  50.1644771  43.7089057   0.5839480  50.5929618
  44.3853195  -0.0592778  49.4010704  37.2972780  -2.7436617  50.7372696
  37.8097300  -1.9493367  50.8878260  37.9495492  -3.4410327  50.6706297
  39.1067664   0.3729139  52.8195449  39.2834293   1.2947104  52.6316433
  39.9024498   0.0587558  53.2489829  38.3920021  -7.5806229  62.6957612
  38.2773536  -8.4820972  62.9964711  37.5364539  -7.3342532  62.3442429
  45.4711859   0.3611511  64.2945113  45.0275713  -0.4252110  63.9766017
  46.1329072   0.5490662  63.6289003  40.2298980   1.8907313  58.8205791
  40.7806405   1.7624376  58.0482785  39.3910456   2.1902202  58.4700684
  47.5693097   0.6414311  62.3226514  47.5511572   1.4623192  61.8306783
  48.4913017   0.5168386  62.5476655  44.0266151  -1.8441559  63.1650022
  44.5594488  -2.6053271  62.9349330  43.4980232  -2.1367908  63.9074177
  35.2621696  -4.4147963  51.5132266  36.0996918  -4.0050955  51.2965974
  35.4399964  -5.3548521  51.4832460  45.3918863  -2.7155567  50.6768834
  44.8640225  -3.4502807  50.3642072  44.8906366  -1.9380891  50.4308803
  50.3711709  -4.5206546  55.7935881  49.7135384  -3.8307285  55.8816009
  51.1752109  -4.1310115  56.1369867  43.5371464  -4.8975357  43.6803807
  42.6298525  -5.1286103  43.8794956  44.0342496  -5.6937737  43.8677789
  46.4439543   3.8122151  46.6000494  45.7701241   4.1153847  47.2085451
  46.8305364   4.6151231  46.2505951  44.7159697  -4.7962762  48.2027797
  43.8070916  -5.0803729  48.3000267  44.7454781  -4.3763683  47.3431104
  49.9478964  -1.1856172  51.9718965  49.4941292  -2.0265262  52.0284156
  49.3172931  -0.5494774  52.3093745  48.3911904   0.6520324  52.9068783
  48.6834878   1.2125381  52.1881149  48.9010524   0.9448885  53.6621942
  35.2847867  -7.0757248  52.1843000  35.0872267  -7.6687887  51.4594066
  34.7294531  -7.3805037  52.9018938  44.4135785  -3.2554018  45.5415876
  43.9755215  -3.9718159  45.0821513  45.1546226  -3.0277903  44.9800967
  43.3545529   1.4300675  53.9962236  43.3121708   1.6561522  53.0670768
  44.2708228   1.1964050  54.1448038  52.5578279  -2.9120294  56.6103466
  52.9914786  -3.0045005  57.4586520  53.2709860  -2.9362794  55.9723482
  41.4711330  -1.6936296  53.7924199  42.2651928  -2.1885975  53.5906774
  40.7603022  -2.2218432  53.4291905  46.2906174   0.6881800  58.1436567
  46.3443196   1.2572736  58.9114283  45.4220956   0.8583685  57.7790604
  37.7794093  -7.5493214  49.8683952  36.8491681  -7.6108758  50.0853914
  37.8751565  -8.0717261  49.0720593  53.4193829  -2.8696593  59.1436352
  53.6129719  -1.9650783  59.3895626  53.3194447  -3.3289174  59.9774937
  48.4808937  -2.7189851  64.7177232  48.3294444  -2.9479299  63.8007316
  48.4713617  -1.7619249  64.7308577  45.2494274  -5.1457938  59.7023499
  46.1786334  -4.9946778  59.5292466  44.8285304  -5.0573917  58.8472145
  44.0482606  -1.1207274  57.4722036  43.9093691  -1.4888489  58.3447974
  43.2597202  -0.6059634  57.3005994  44.6430758   3.9801823  48.8147573
  44.8182513   3.5089866  49.6293195  43.9563546   4.6067589  49.0428833
  45.5987821  -1.7425671  54.8610874  45.2637653  -1.7824901  55.7568524
  45.0991767  -2.4080955  54.3881284  39.5732065  -6.3358041  60.3863455
  39.4351863  -7.0677802  60.9874994  40.4836988  -6.4249141  60.1047643
  48.5347012  -4.3969636  45.1347934  47.9176183  -5.1222808  45.0380986
  48.0663501  -3.6360276  44.7915008  42.2014365  -6.6238081  59.8747135
  42.9113984  -7.2644889  59.8333753  42.1583674  -6.3725187  60.7973316
  50.1901144   0.3129272  62.7953714  50.1313690  -0.3711508  62.1284297
  50.5920663   1.0548262  62.3434340  39.2091843   7.1291186  55.5887433
  39.4488441   7.7609710  56.2666451  38.3661039   6.7779226  55.8752792
  50.1918551  -1.7231144  61.0267694  49.3045330  -2.0605222  61.1494093
  50.7617102  -2.4548113  61.2636459  31.8447699  -5.3907052  54.3510745
  32.5318738  -5.7045322  53.7631760  31.6895827  -4.4865688  54.0777996
  43.7219705   2.9370308  57.9928937  43.6489876   3.7425280  58.5048241
  43.2797098   3.1362274  57.1676958  43.5109484   2.1742078  51.5031758
  42.7277006   2.7163758  51.5969983  44.2102230   2.6916058  51.9026000
  46.1818388   2.8357142  60.1487096  46.8946361   3.4704607  60.0762997
  45.6908417   2.9321008  59.3327097  47.9035915  -3.2591605  51.7204387
  46.9692194  -3.1390143  51.5509092  48.0812584  -4.1619138  51.4564397
  41.2330302   0.5851586  60.9692666  41.9339761   1.2188069  61.1222061
  40.7625417   0.9266317  60.2088306  49.3584698  -1.0730465  49.2540573
  49.6344542  -1.1873870  50.1634447  48.4889196  -1.4712980  49.2152746
  45.9938762   3.1755886  52.8973387  46.1761156   2.3577542  53.3601139
  46.8171748   3.3923579  52.4598277  46.3280927   2.1024071  50.1588435
  46.8568694   1.5916526  49.5458598  46.5909147   1.7866602  51.0233969
  36.8298020   0.1187941  57.9023769  37.4151457  -0.6268371  58.0351673
  36.6322858   0.4291897  58.7860433  39.6836675   3.1539188  52.9186211
  39.0147050   3.6385316  52.4350251  39.5449545   3.4008409  53.8329590
  43.8241944   5.1882932  59.5168870  44.3760252   5.3514553  60.2817955
  44.1648137   5.7787369  58.8448895  48.6752818   0.0144189  65.3717524
  49.2192722   0.6274147  64.8772479  48.0939663   0.5723768  65.8884537
  46.9610331   3.1364907  56.5032552  46.8361470   2.3354647  55.9943497
  47.6189422   3.6311100  56.0146522  49.0245239   0.9373927  58.1312102
  48.0775575   0.8179278  58.0590429  49.3728013   0.0496425  58.2138363
  46.0291673   0.7326643  54.3316454  45.8816635  -0.1956649  54.5124024
  46.8545166   0.7546734  53.8473530  49.6325795   1.5555202  55.4181327
  50.5572342   1.3498064  55.2805778  49.4641098   1.3071603  56.3270669
  49.4221111   2.0740870  50.7743418  49.5957988   1.5087292  50.0217271
  49.9150002   2.8741764  50.5922908  35.2398071  -5.9144461  58.8406977
  34.6951539  -5.1384653  58.9727252  36.1177420  -5.5673657  58.6826099
  50.4096283   1.3907634  47.8740317  51.1047188   2.0114327  48.0927631
  50.7519433   0.5402985  48.1492695  36.0264092  -6.7874565  61.7337134
  35.2845828  -6.6391930  62.3201765  35.7056837  -6.5266299  60.8703884
  52.3087706  -1.1592660  49.4027648  52.8339030  -0.8205388  48.6776968
  52.2210059  -2.0945645  49.2190782  43.9707755   2.7541413  61.5317524
  44.2794882   2.5090560  62.4040224  44.7683237   2.9588052  61.0436394
  43.9928367   4.9079323  53.7622901  43.5533357   4.4155702  54.4555757
  44.7436484   4.3652290  53.5214976  36.4720706   1.0990864  53.7647529
  37.2978726   0.7994636  53.3846172  36.1214758   0.3298486  54.2137317
  41.4402239   0.4517332  55.8345202  40.8182249  -0.2111963  55.5347430
  42.1107106   0.4778464  55.1518850  34.6729311  -0.9822810  54.7236462
  33.8361219  -1.4100636  54.5420464  34.6452957  -0.7890367  55.6607254
  51.9981612  -0.5259757  64.7078845  51.2077156  -0.5435618  64.1683345
  51.7614967   0.0128537  65.4627882  41.0015746  -0.9978745  49.3103663
  41.1503867  -0.3143280  48.6570336  41.8082190  -1.0173655  49.8253119
  53.6197684  -1.2570349  62.2653596  53.3282493  -0.8940368  63.1017057
  53.0069816  -1.9703341  62.0866928  38.7568379  -4.9713567  50.3164732
  38.5114421  -5.8751237  50.5144942  38.9264294  -4.9696417  49.3744210
  44.5011152   1.4969386  46.7815410  43.9285119   2.1159573  46.3285882
  45.0743945   2.0468747  47.3155332  47.7208411   1.7806536  47.9123993
  48.6539085   1.7152098  48.1156868  47.6331624   2.6162803  47.4538525
  50.3496428   1.0972406  44.8727940  50.2710060   0.7632270  45.7663698
  51.1706095   1.5894174  44.8719413  44.7696643  -3.1152055  65.5832120
  45.6899652  -2.9373456  65.7772166  44.7346226  -4.0596010  65.4311819
  37.7658715  -5.2051021  58.2254901  37.9844725  -4.2733913  58.2442935
  38.1784489  -5.5643046  59.0109705  33.8567068  -4.3010550  56.4778516
  33.1630539  -4.7156597  55.9648470  34.6040059  -4.2590014  55.8811935
  42.5017851  -6.2020676  66.4322712  42.0184932  -5.4020316  66.6386601
  42.5878790  -6.1912731  65.4790156  35.7703810  -4.3692296  54.3544531
  35.7474498  -4.2704609  53.4026414  36.0804447  -3.5227146  54.6761697
  38.4291188  -2.3116141  58.4691145  39.3834442  -2.3432199  58.4021077
  38.2303712  -2.7725518  59.2841371  39.0190570  -3.7415025  61.0361943
  39.8383459  -3.2470947  61.0596780  39.2927378  -4.6583057  61.0079511
  36.7841417   3.2303478  55.4861343  36.6495885   2.4703879  54.9199341
  36.3673479   3.9544378  55.0190132  47.9200380  -1.5859598  44.4937919
  48.6236230  -1.3809596  45.1095574  47.1963029  -1.0182837  44.7587002
  39.9410543   4.1272795  55.6979786  39.8242927   5.0718228  55.5958476
  39.1202989   3.8246357  56.0865585  49.8287077  -1.1477069  46.5436379
  50.6632681  -1.5795871  46.3613853  49.6671420  -1.3195056  47.4713273
  49.4832970  -4.6444956  47.9092718  49.4281773  -4.8100684  46.9681162
  48.8579025  -3.9368923  48.0654908  46.7978877  -2.3396044  67.2346281
  47.6670036  -2.1655392  66.8732916  46.3185628  -1.5201627  67.1122010
  40.9665057   4.7801057  58.9135714  41.8692304   4.8124667  59.2302209
  40.7402427   3.8501508  58.9282050  42.7218659   3.5332043  55.5745793
  41.7714290   3.5333905  55.4610165  43.0251145   2.7864778  55.0581828
  58.4571352   9.3692582  56.6391555  59.0949762   9.2499329  55.9354895
  58.3392195  10.3173426  56.6979507  55.2661059   9.3220010  56.5753080
  54.9279570   9.2061075  55.6873615  56.1350827   8.9211175  56.5554086
  51.1247874  11.1755486  52.5649971  50.5612740  11.0845423  51.7966259
  51.0100269  10.3555391  53.0452463  55.7480842  10.4754862  62.5339286
  55.7369482  10.0807660  61.6619789  55.9101481   9.7420934  63.1273057
  48.6712306  12.6706678  55.4034191  49.4633598  12.3297503  54.9880491
  48.9108956  12.7801653  56.3236345  56.7047433  14.8426454  47.8764436
  56.0535413  15.4280535  47.4898450  57.4991796  15.3732649  47.9359473
  50.6303060  11.9315591  48.2751570  51.4033936  11.3844578  48.1364446
  50.9828459  12.7959841  48.4866032  52.4688103  13.2591974  61.4818470
  52.1777969  14.1637604  61.3665136  53.1045087  13.3008501  62.1962539
  53.3944310  10.6368822  58.0719829  53.9907882  10.4124844  57.3576792
  53.4519281   9.8953568  58.6745277  52.9669338   8.0908257  45.9070020
  53.2194859   7.5689779  45.1453483  52.0293897   7.9274403  46.0096704
  58.0112621   7.0944036  53.7144763  58.7975710   6.6763459  53.3635180
  58.2751325   7.9990128  53.8826412  58.1822698  12.5316886  48.4133420
  57.5468531  12.6051513  49.1254325  57.8520105  13.1210485  47.7352499
  63.4121048   7.0319269  54.6177742  64.1446220   6.4618486  54.8515571
  62.6560404   6.6440869  55.0584247  52.6865627   9.9936363  48.1094395
  52.5701885   9.3181267  48.7775479  52.7967887   9.5068737  47.2926548
  55.0297168   9.4546510  51.8141084  54.6655375   8.9277131  52.5254006
  55.8864284   9.0644979  51.6407570  60.9346468   0.7440843  59.0772350
  60.6029793   1.6136254  58.8533565  60.3392082   0.4277127  59.7566381
  54.6702655   4.4836410  46.8102433  54.8377057   5.3516647  47.1772904
  54.4799824   4.6463692  45.8863722  57.4277988  12.9453389  58.4768263
  57.1278711  13.8478428  58.3684070  57.0829047  12.6785572  59.3289416
  50.8790469   9.3967186  54.5104968  49.9540966   9.2643400  54.7182659
  51.1274883  10.1761405  55.0074910  60.8275132   5.4635929  56.1565701
  59.9192009   5.3951338  55.8624461  60.7762728   5.9407874  56.9847526
  54.6491876   6.9394068  47.7949100  54.5291501   7.3851118  48.6334580
  53.9544464   7.2879385  47.2362638  48.2399280   9.0400459  55.3448757
  48.3691662   9.2934938  56.2588168  47.5596732   9.6328167  55.0253412
  52.4098768  19.7097709  51.4439231  52.3322797  20.6605534  51.5227711
  51.8060411  19.3643582  52.1014157  54.9015997   6.8825575  64.1000598
  54.1249332   7.4419495  64.0903462  55.5406561   7.3682358  64.6215468
  62.6936778   3.6652368  57.9343574  62.0511158   3.9584901  57.2883369
  62.1891707   3.5505288  58.7396771  60.3476942   7.4115541  48.6229434
  61.2594798   7.6442928  48.4477131  59.8386589   7.9952585  48.0604512
  53.1562370   9.6911028  63.6618565  53.8977054  10.2296072  63.3853388
  52.4499355  10.3177317  63.8190117  58.6317709  11.8340169  62.2590726
  59.0401065  11.3922579  61.5145359  57.9094971  11.2592796  62.5124919
  54.9848779   6.7712775  59.6324283  55.8309975   7.1952189  59.7758932
  54.9247417   6.1146400  60.3262846  58.9546524  12.3941359  56.0143015
  58.3255387  12.5587073  55.3119083  58.5672186  12.8082969  56.7853979
  62.8335756  13.3295797  53.3687379  62.1486794  13.7094698  52.8184412
  62.9179605  13.9391124  54.1019327  58.1348225   4.4317144  61.2905457
  57.8909157   5.1859204  60.7539733  58.4108155   4.8102491  62.1252704
  60.0886688  10.9755756  59.9682722  60.3003583  11.6187516  59.2917104
  60.0416436  10.1418073  59.5004653  57.6912917   3.5873577  56.8719295
  56.8297396   3.8854830  57.1636032  57.7175351   3.8043976  55.9400327
  54.5074486  12.1315767  53.2793100  54.9712831  12.4103470  52.4897723
  54.2431284  11.2299212  53.0966191  51.3998567  11.6787249  56.2172864
  51.9699924  12.1074517  55.5790348  51.9906679  11.3969834  56.9157049
  53.4443372   8.2538920  50.0882665  54.1467415   8.7059963  50.5556592
  53.1124001   7.6122739  50.7162559  51.8923734   6.8450676  64.4633875
  51.2622394   7.5266957  64.6969272  51.7859821   6.7333758  63.5187013
  47.1868706   6.5122472  55.3899799  46.3967760   6.7680001  54.9139910
  47.6779953   7.3270810  55.4951840  61.2032516  13.8527712  58.1405080
  62.0249959  13.4507899  57.8587761  61.1994918  13.7495946  59.0921196
  49.1383451   6.8767052  52.3483276  48.3414615   6.9885746  52.8666771
  48.9109044   7.2153704  51.4824166  54.9689119  13.4011755  60.2965790
  55.0333551  13.8632162  61.1323962  54.2600043  12.7709120  60.4248100
  45.4706409   6.7652963  57.8214790  45.7214447   7.6499973  58.0872366
  46.0065957   6.5857564  57.0489882  69.2938509  10.1966460  54.4890051
  68.5402217   9.6273858  54.3334056  69.4286050  10.1629125  55.4360686
  54.6837137  15.0679862  50.1644771  54.5482811  15.9131398  50.5929618
  55.2246949  15.2699140  49.4010704  51.1704476   1.1471442  66.8259126
  50.7771422   0.5937641  67.5006770  51.9870617   1.4582021  67.2165643
  48.1366534  12.5855300  50.7372696  48.6491055  13.3798551  50.8878260
  48.7889247  11.8881591  50.6706297  49.9461419  15.7021057  52.8195449
  50.1228047  16.6239021  52.6316433  50.7418252  15.3879476  53.2489829
  54.0872437   2.5629321  64.4179382  54.8282151   3.1636474  64.3383845
  54.3190360   1.8206959  63.8597425  49.2313775   7.7485689  62.6957612
  49.1167290   6.8470946  62.9964711  48.3758293   7.9949385  62.3442429
  56.3105613  15.6903429  64.2945113  55.8669467  14.9039807  63.9766017
  56.9722827  15.8782579  63.6289003  51.0692734  17.2199230  58.8205791
  51.6200159  17.0916294  58.0482785  50.2304210  17.5194119  58.4700684
  58.4086851  15.9706229  62.3226514  58.3905326  16.7915110  61.8306783
  59.3306771  15.8460304  62.5476655  54.8659905  13.4850358  63.1650022
  55.3988242  12.7238646  62.9349330  54.3373986  13.1924010  63.9074177
  58.0329600  -1.4089576  58.6943664  57.6893870  -0.5187934  58.6182775
  58.4008563  -1.5987918  57.8313249  46.1015451  10.9143955  51.5132266
  46.9390673  11.3240963  51.2965974  46.2793719   9.9743397  51.4832460
  57.9979883   8.5819035  47.2016099  57.4826506   9.3523640  47.4404487
  57.7257191   7.9084171  47.8249161  55.5826994   3.4268736  52.2601338
  54.7268590   3.0375587  52.0806976  55.9953946   3.5060697  51.4001123
  57.1126141   0.9615079  56.6592897  56.6090936   0.9245215  55.8460703
  57.4056747   1.8707822  56.7189554  53.3569026   1.0453809  55.6659079
  54.2222023   0.8496618  55.3064969  53.4246535   0.8164161  56.5928436
  62.9714157  11.3351390  49.1369273  62.1943600  10.9962549  48.6924435
  63.6505638  11.3404013  48.4624238  57.7866186   6.4546127  49.0275880
  57.4816322   6.7692277  49.8786024  58.7396628   6.5327547  49.0703213
  56.2312618  12.6136351  50.6768834  55.7033980  11.8789110  50.3642072
  55.7300121  13.3911027  50.4308803  61.2105464  10.8085371  55.7935881
  60.5529138  11.4984633  55.8816009  62.0145863  11.1981803  56.1369867
  50.9631346   3.2756017  53.0375446  51.5375097   3.0531199  52.3048639
  51.5502328   3.3444712  53.7904047  60.0210923   9.1629744  53.8439822
  60.5342805   9.7959736  54.3461532  60.6712147   8.5630939  53.4783182
  51.2900933   5.3060478  47.0571331  50.4538245   5.6435165  47.3780606
  51.1505702   5.1709458  46.1198468  53.2654013   0.1497266  51.7650515
  52.6118426  -0.1653717  51.1407130  53.2234487  -0.4726994  52.4910338
  54.3765218  10.4316561  43.6803807  53.4692280  10.2005814  43.8794956
  54.8736250   9.6354180  43.8677789  57.2833297  19.1414068  46.6000494
  56.6094996  19.4445765  47.2085451  57.6699119  19.9443149  46.2505951
  56.4991754   6.6379199  56.0898163  55.5814315   6.8594146  55.9319851
  56.9151897   6.7125510  55.2309870  57.2826801   8.0370615  51.2200843
  58.0298620   8.5492012  50.9107965  57.5518391   7.7154668  52.0805237
  55.5553452  10.5329156  48.2027797  54.6464671  10.2488189  48.3000267
  55.5848535  10.9528234  47.3431104  60.7872719  14.1435745  51.9718965
  60.3335046  13.3026655  52.0284156  60.1566686  14.7797144  52.3093745
  59.7305639   5.0727731  53.2019632  58.9928395   4.5605118  53.5329875
  59.9832412   4.6328113  52.3902909  59.2305658  15.9812242  52.9068783
  59.5228633  16.5417299  52.1881149  59.7404279  16.2740803  53.6621942
  46.1241622   8.2534670  52.1843000  45.9266022   7.6604031  51.4594066
  45.5688286   7.9486880  52.9018938  54.1038346   8.1457776  54.3037593
  54.1586955   7.1931613  54.2280069  53.2929548   8.3017216  54.7878891
  55.2529539  12.0737900  45.5415876  54.8148969  11.3573758  45.0821513
  55.9939980  12.3014014  44.9800967  52.0430706   6.7634836  52.0627972
  51.2298571   7.0629007  52.4693164  52.5389700   6.3690525  52.7802454
  54.1939283  16.7592593  53.9962236  54.1515462  16.9853439  53.0670768
  55.1101982  16.5255968  54.1448038  57.6404917   7.2276661  60.8942866
  57.9954305   7.4548134  61.7537331  58.2877048   7.5595037  60.2720121
  63.3702654  10.3495097  51.5992195  63.2320553  10.5396693  50.6713384
  63.0138873  11.1114479  52.0560246  51.5344780   4.3353192  57.6789207
  52.1744160   4.1941951  56.9812170  50.7022311   4.0487705  57.3027809
  63.3972034  12.4171624  56.6103466  63.8308540  12.3246913  57.4586520
  64.1103614  12.3929124  55.9723482  52.3105084  13.6355622  53.7924199
  53.1045683  13.1405942  53.5906774  51.5996777  13.1073485  53.4291905
  57.1299929  16.0173718  58.1436567  57.1836951  16.5864654  58.9114283
  56.2614710  16.1875603  57.7790604  48.6187848   7.7798704  49.8683952
  47.6885436   7.7183159  50.0853914  48.7145320   7.2574657  49.0720593
  48.5373397   4.3053517  52.4562193  48.7980214   5.2198850  52.3471354
  49.3590569   3.8377959  52.6058806  50.0098322   5.7191274  59.6261018
  50.6821375   5.5108636  58.9773667  49.1828109   5.5213360  59.1866250
  64.2587583  12.4595324  59.1436352  64.4523473  13.3641135  59.3895626
  64.1588201  12.0002743  59.9774937  55.9123894   2.3453215  61.6426679
  55.2651809   3.0443164  61.5491155  56.6824909   2.7789359  62.0102927
  59.3202692  12.6102067  64.7177232  59.1688198  12.3812619  63.8007316
  59.3107371  13.5672668  64.7308577  56.0888028  10.1833980  59.7023499
  57.0180088  10.3345139  59.5292466  55.6679058  10.2718001  58.8472145
  54.8876360  14.2084644  57.4722036  54.7487446  13.8403429  58.3447974
  54.0990956  14.7232284  57.3005994  55.4824512  19.3093741  48.8147573
  55.6576268  18.8381784  49.6293195  54.7957300  19.9359507  49.0428833
  56.4381575  13.5866247  54.8610874  56.1031408  13.5467017  55.7568524
  55.9385521  12.9210963  54.3881284  50.4125819   8.9933877  60.3863455
  50.2745617   8.2614116  60.9874994  51.3230743   8.9042777  60.1047643
  59.3740767  10.9322281  45.1347934  58.7569938  10.2069109  45.0380986
  58.9057255  11.6931641  44.7915008  53.0408120   8.7053836  59.8747135
  53.7507738   8.0647028  59.8333753  52.9977428   8.9566731  60.7973316
  61.0294899  15.6421190  62.7953714  60.9707445  14.9580410  62.1284297
  61.4314417  16.3840180  62.3434340  51.7537054   5.6919054  61.6942774
  51.2174411   5.2409793  62.3464371  51.1653762   5.8264963  60.9513239
  50.0485597  22.4583103  55.5887433  50.2882196  23.0901628  56.2666451
  49.2054794  22.1071143  55.8752792  51.1639313   5.1507705  44.2569238
  50.2868779   5.0296506  43.8931485  51.6397066   4.3593784  44.0048127
  61.0312306  13.6060773  61.0267694  60.1439085  13.2686695  61.1494093
  61.6010857  12.8743805  61.2636459  42.6841453   9.9384865  54.3510745
  43.3712493   9.6246595  53.7631760  42.5289582  10.8426230  54.0777996
  47.4876175   4.8275062  58.7795769  47.4034364   4.2200731  58.0446179
  46.6658882   5.3184080  58.7805265  54.5613459  18.2662226  57.9928937
  54.4883631  19.0717197  58.5048241  54.1190852  18.4654192  57.1676958
  54.3503239  17.5033996  51.5031758  53.5670761  18.0455676  51.5969983
  55.0495984  18.0207975  51.9026000  57.6599889   3.3128625  54.1465964
  58.1568589   2.5598588  53.8267034  56.8886871   3.3492942  53.5809173
  65.5129646   9.0168991  55.7884255  65.5019523   9.8993706  55.4178188
  64.6447026   8.6640542  55.5938792  57.0212143  18.1649060  60.1487096
  57.7340115  18.7996525  60.0762997  56.5302171  18.2612926  59.3327097
  58.7429670  12.0700313  51.7204387  57.8085948  12.1901775  51.5509092
  58.9206338  11.1672779  51.4564397  54.2434858   5.4546008  53.8737648
  53.8732645   4.9017049  54.5618554  54.7393950   4.8504142  53.3212648
  62.1302221   7.9117632  52.2554421  62.5962673   8.7445623  52.1814724
  62.5809722   7.4462613  52.9599680  52.0724056  15.9143503  60.9692666
  52.7733516  16.5479986  61.1222061  51.6019171  16.2558235  60.2088306
  60.1978452  14.2561453  49.2540573  60.4738296  14.1418048  50.1634447
  59.3282951  13.8578938  49.2152746  60.1018884   0.2798219  56.2945323
  59.1881964   0.5102446  56.4627530  60.5311985   0.3636663  57.1459355
  59.8725342   8.4688111  58.7945217  59.2196793   8.7164018  58.1397669
  60.2505722   7.6552249  58.4607694  56.8332516  18.5047804  52.8973387
  57.0154911  17.6869460  53.3601139  57.6565502  18.7215496  52.4598277
  57.1674682  17.4315989  50.1588435  57.6962448  16.9208444  49.5458598
  57.4302901  17.1158519  51.0233969  55.9212915   9.2107922  65.2811254
  55.2453552   9.1102051  65.9513629  56.7440549   9.0547136  65.7447251
  47.6691774  15.4479858  57.9023769  48.2545211  14.7023546  58.0351673
  47.4716613  15.7583815  58.7860433  50.5230430  18.4831106  52.9186211
  49.8540805  18.9677233  52.4350251  50.3843299  18.7300326  53.8329590
  42.2609429   8.0185459  56.6228212  42.2993529   7.4849049  57.4165330
  41.7549722   7.4920664  56.0039189  54.6635698  20.5174849  59.5168870
  55.2154006  20.6806471  60.2817955  55.0041892  21.1079287  58.8448895
  49.6400191   2.8649999  60.1190754  49.7041518   3.7264830  59.7068152
  49.5767312   2.2524001  59.3863113  49.1152464   4.9373132  63.7663789
  49.7424503   4.5550209  64.3801313  48.2580383   4.7187334  64.1319481
  59.5146573  15.3436107  65.3717524  60.0586477  15.9566065  64.8772479
  58.9333417  15.9015685  65.8884537  45.8918007   6.7449561  49.6982144
  46.1871448   5.8360239  49.6449197  44.9906042   6.7237300  49.3763146
  57.8004085  18.4656825  56.5032552  57.6755225  17.6646565  55.9943497
  58.4583177  18.9603018  56.0146522  49.4212254   4.8205557  55.6809692
  48.6998839   5.4341525  55.5417165  50.2105509   5.3563322  55.6026338
  59.8638994  16.2665845  58.1312102  58.9169329  16.1471196  58.0590429
  60.2121767  15.3788343  58.2138363  52.2238567   2.1559984  61.9550344
  52.7472969   2.4022280  62.7176653  52.0050901   2.9880019  61.5353481
  47.6205848   4.4263658  49.8221469  47.2918554   3.5461037  49.6396575
  47.9745219   4.3711327  50.7097858  56.8685427  16.0618561  54.3316454
  56.7210390  15.1335269  54.5124024  57.6938921  16.0838652  53.8473530
  50.7347671   4.7136628  50.1896946  51.0743744   5.2422549  49.4675555
  51.1819792   5.0517034  50.9655513  60.4719549  16.8847120  55.4181327
  61.3966096  16.6789981  55.2805778  60.3034852  16.6363521  56.3270669
  53.4291112   3.0973679  59.6400014  53.0887933   2.2981492  60.0420694
  52.7230119   3.3975390  59.0676848  54.0807584   0.1822991  58.0927337
  54.9033653  -0.2916530  57.9706228  54.3245648   0.9613475  58.5926024
  52.7215819   3.2111250  48.3890239  53.4424181   3.5892503  47.8853956
  52.0981123   3.9300127  48.4925217  56.8646941   3.9156399  49.3248572
  57.0810556   4.7981037  49.0237400  56.3841009   3.5242612  48.5954213
  51.6046163   6.8742112  55.9019316  51.4590744   7.1882415  56.7943598
  51.1271367   7.4927012  55.3490215  53.4642546   3.8644660  55.9500206
  53.4504115   2.9685753  55.6132504  54.1814974   3.8715324  56.5838492
  55.3168676   4.2982000  57.9953333  55.0586454   5.2199071  57.9937664
  54.7853717   3.9012435  58.6853797  60.2614865  17.4032787  50.7743418
  60.4351743  16.8379210  50.0217271  60.7543756  18.2033682  50.5922908
  46.0791825   9.4147456  58.8406977  45.5345293  10.1907264  58.9727252
  46.9571175   9.7618261  58.6826099  52.8679442   2.7459040  51.2187776
  52.9895353   1.8175686  51.4178663  52.5781484   2.7597726  50.3066091
  55.7370632   0.4313951  54.3554496  55.7592329   0.4953284  53.4006475
  56.1538691  -0.4081541  54.5495002  66.1154256  10.1669210  52.3933718
  66.5585402   9.4176535  51.9952841  65.2380767  10.1579347  52.0107450
  61.2490038  16.7199552  47.8740317  61.9440942  17.3406244  48.0927631
  61.5913188  15.8694903  48.1492695  46.8657847   8.5417353  61.7337134
  46.1239583   8.6899988  62.3201765  46.5450591   8.8025618  60.8703884
  63.1481461  14.1699257  49.4027648  63.6732785  14.5086530  48.6776968
  63.0603813  13.2346273  49.2190782  54.8101510  18.0833331  61.5317524
  55.1188636  17.8382478  62.4040224  55.6076992  18.2879969  61.0436394
  54.8322122  20.2371241  53.7622901  54.3927112  19.7447619  54.4555757
  55.5830239  19.6944208  53.5214976  47.3114461  16.4282781  53.7647529
  48.1372480  16.1286553  53.3846172  46.9608513  15.6590404  54.2137317
  52.2795994  15.7809250  55.8345202  51.6576003  15.1179955  55.5347430
  52.9500861  15.8070381  55.1518850  45.5123066  14.3469108  54.7236462
  44.6754974  13.9191282  54.5420464  45.4846711  14.5401551  55.6607254
  52.3520521   4.2591038  65.4277708  52.4008677   5.1353160  65.0455478
  52.8943035   3.7168431  64.8549352  62.8375367  14.8032161  64.7078845
  62.0470911  14.7856300  64.1683345  62.6008721  15.3420455  65.4627882
  62.9573242  11.6524627  62.0211574  63.0071247  11.4874635  62.9627097
  62.8487165  10.7851886  61.6309455  51.8409501  14.3313173  49.3103663
  51.9897621  15.0148637  48.6570336  52.6475944  14.3118263  49.8253119
  60.2477004   7.6355555  63.3370881  61.1486867   7.4962020  63.0454879
  60.3224979   7.8010010  64.2769058  54.5819810   5.0122410  62.1824067
  53.7123119   5.3055976  61.9106656  54.8179290   5.5962855  62.9031331
  64.4591439  14.0721569  62.2653596  64.1676247  14.4351549  63.1017057
  63.8463570  13.3588577  62.0866928  65.6587121  11.6374449  54.7856166
  66.4934012  12.0764253  54.9493726  65.7946250  11.1613102  53.9664412
  62.7078627   9.1954183  60.7333654  63.1832749   9.3881830  59.9252505
  61.7844192   9.2513369  60.4877037  49.5962134  10.3578351  50.3164732
  49.3508176   9.4540681  50.5144942  49.7658048  10.3595501  49.3744210
  57.2858844   1.2302027  59.6989487  57.8040787   1.9663054  59.3735976
  56.9313976   1.5366020  60.5336247  48.8657781   6.0906708  47.8150893
  48.1727026   6.1651063  47.1590929  48.6209533   5.3267052  48.3372410
  55.3404906  16.8261303  46.7815410  54.7678873  17.4451491  46.3285882
  55.9137700  17.3760665  47.3155332  61.4080296   6.0719943  58.9661959
  62.3597719   6.1718041  58.9874183  61.2383746   5.2798212  59.4760044
  59.4294675   3.1575527  59.1521360  58.8344608   3.4380539  58.4567849
  59.1444372   3.6469428  59.9238101  58.5602166  17.1098454  47.9123993
  59.4932839  17.0444015  48.1156868  58.4725379  17.9454720  47.4538525
  61.1890183  16.4264324  44.8727940  61.1103814  16.0924187  45.7663698
  62.0099849  16.9186092  44.8719413  63.8868374   9.2926063  58.0804259
  63.8544694   8.3542064  58.2663943  64.4968997   9.3710100  57.3470084
  55.7251705   8.1622116  44.1231463  56.6710809   8.0328324  44.1919881
  55.3465950   7.4236778  44.6000891  64.0362862   6.0837107  58.1262542
  63.5201911   5.2995563  57.9392471  64.9202811   5.7555823  58.2909061
  61.6973589  -0.1721878  54.0858355  61.4998410  -0.4806790  54.9701687
  62.3073295   0.5539761  54.2156285  69.7044924  10.3542070  57.2210296
  70.4348312  10.0927358  57.7817999  69.0951869   9.6170792  57.2612364
  67.7860221   8.4949933  57.8184747  67.0593384   8.3605898  57.2101238
  67.3707508   8.8026761  58.6241465  55.6090397  12.2139862  65.5832120
  56.5293407  12.3918461  65.7772166  55.5739980  11.2695908  65.4311819
  53.9094622   6.0872093  44.0586348  53.0026077   5.7905205  44.1349062
  54.1870603   5.7901911  43.1920634  44.8272562   7.4078456  54.5085394
  44.5075347   6.5543764  54.2159768  44.2805990   7.6227034  55.2643362
  48.6052470  10.1240897  58.2254901  48.8238480  11.0558005  58.2442935
  49.0178244   9.7648871  59.0109705  55.5256688   0.6308982  50.2130589
  54.7157416   0.2856067  50.5885835  56.2141104   0.3216526  50.8018201
  57.4547236  -0.2912971  51.8354886  58.0078274   0.1282482  52.4944909
  57.6917322  -1.2177223  51.8777842  53.4780335   5.6974103  67.6157650
  53.3777062   6.6468460  67.5469741  53.2601877   5.3692342  66.7433720
  52.6793406   2.9459028  44.1998327  53.5412570   3.2713926  44.4594145
  52.8643751   2.1590524  43.6871393  44.6960822  11.0281367  56.4778516
  44.0024294  10.6135320  55.9648470  45.4433813  11.0701904  55.8811935
  60.8326043   1.8187554  51.3433550  60.2524712   2.4772358  50.9611603
  60.5661976   0.9964899  50.9320968  59.2829609   1.2192612  53.5454871
  59.7829388   1.3309146  52.7369189  59.9265217   0.9153665  54.1855679
  53.3411605   9.1271242  66.4322712  52.8578687   9.9271602  66.6386601
  53.4272544   9.1379186  65.4790156  46.6097565  10.9599621  54.3544531
  46.5868253  11.0587308  53.4026414  46.9198201  11.8064772  54.6761697
  49.2684943  13.0175776  58.4691145  50.2228196  12.9859719  58.4021077
  49.0697466  12.5566400  59.2841371  49.8584325  11.5876892  61.0361943
  50.6777214  12.0820971  61.0596780  50.1321132  10.6708860  61.0079511
  59.6150921   3.9787645  50.3989899  58.7276776   4.2637295  50.1810093
  60.0304910   3.8181408  49.5517175  62.9665457   4.0034166  54.1144238
  63.7425847   4.4930618  54.3868855  62.2413591   4.4292220  54.5716107
  65.4038016   4.7161785  55.1718178  65.9982507   4.4757521  54.4611487
  65.4764599   3.9968915  55.7991715  47.6235171  18.5595396  55.4861343
  47.4889639  17.7995797  54.9199341  47.2067234  19.2836296  55.0190132
  58.7594134  13.7432319  44.4937919  59.4629985  13.9482322  45.1095574
  58.0356783  14.3109081  44.7587002  59.5891945   9.4942181  50.6140189
  59.5327146   9.9510732  49.7747821  60.1420287   8.7332865  50.4363031
  63.3996751   5.2831912  51.4390308  63.1433685   4.8828548  52.2698516
  62.7749619   5.9975706  51.3140447  67.7109088   8.0227986  53.9461600
  67.1508646   8.0921175  54.7193162  67.1052592   7.8468970  53.2261096
  50.7804297  19.4564713  55.6979786  50.6636681  20.4010145  55.5958476
  49.9596744  19.1538274  56.0865585  60.6680832  14.1814848  46.5436379
  61.5026436  13.7496047  46.3613853  60.5065175  14.0096862  47.4713273
  60.3226724  10.6846962  47.9092718  60.2675528  10.5191233  46.9681162
  59.6972779  11.3922995  48.0654908  45.1119239   5.9215026  61.7354140
  45.7578103   5.4113980  62.2241365  44.9036390   6.6583708  62.3097565
  57.6372631  12.9895874  67.2346281  58.5063791  13.1636526  66.8732916
  57.1579383  13.8090290  67.1122010  53.6322849   0.1855071  47.4878036
  53.6201519   1.1296911  47.6446307  54.5246271   0.0025216  47.1937497
  51.8058811  20.1092975  58.9135714  52.7086058  20.1416585  59.2302209
  51.5796181  19.1793426  58.9282050  53.5612413  18.8623961  55.5745793
  52.6108044  18.8625823  55.4610165  53.8644900  18.1156696  55.0581828
  49.4516730   3.0682643  65.8329154  50.3148192   2.7119448  66.0432479
  48.8782141   2.7296538  66.5204559  69.2965107  24.6984500  56.6391555
  69.9343517  24.5791247  55.9354895  69.1785950  25.6465344  56.6979507
  66.1054813  24.6511928  56.5753080  65.7673325  24.5352992  55.6873615
  66.9744581  24.2503093  56.5554086  61.9641629  26.5047404  52.5649971
  61.4006494  26.4137341  51.7966259  61.8494024  25.6847309  53.0452463
  66.5874596  25.8046779  62.5339286  66.5763237  25.4099578  61.6619789
  66.7495236  25.0712852  63.1273057  59.5106061  27.9998596  55.4034191
  60.3027353  27.6589420  54.9880491  59.7502711  28.1093571  56.3236345
  67.5441188  30.1718372  47.8764436  66.8929167  30.7572452  47.4898450
  68.3385550  30.7024567  47.9359473  61.4696815  27.2607509  48.2751570
  62.2427691  26.7136496  48.1364446  61.8222214  28.1251758  48.4866032
  63.3081857  28.5883891  61.4818470  63.0171723  29.4929522  61.3665136
  63.9438842  28.6300419  62.1962539  64.2338064  25.9660740  58.0719829
  64.8301636  25.7416762  57.3576792  64.2913036  25.2245485  58.6745277
  63.8063093  23.4200175  45.9070020  64.0588613  22.8981696  45.1453483
  62.8687652  23.2566320  46.0096704  68.8506375  22.4235953  53.7144763
  69.6369465  22.0055377  53.3635180  69.1145080  23.3282046  53.8826412
  69.0216453  27.8608804  48.4133420  68.3862286  27.9343430  49.1254325
  68.6913859  28.4502403  47.7352499  74.2514803  22.3611187  54.6177742
  74.9839974  21.7910403  54.8515571  73.4954158  21.9732787  55.0584247
  63.5259381  25.3228281  48.1094395  63.4095639  24.6473184  48.7775479
  63.6361641  24.8360655  47.2926548  65.8690922  24.7838428  51.8141084
  65.5049129  24.2569049  52.5254006  66.7258038  24.3936897  51.6407570
  71.7740223  16.0732761  59.0772350  71.4423548  16.9428172  58.8533565
  71.1785836  15.7569045  59.7566381  65.5096409  19.8128328  46.8102433
  65.6770812  20.6808564  47.1772904  65.3193578  19.9755610  45.8863722
  68.2671742  28.2745307  58.4768263  67.9672466  29.1770346  58.3684070
  67.9222802  28.0077490  59.3289416  61.7184224  24.7259104  54.5104968
  60.7934720  24.5935318  54.7182659  61.9668637  25.5053323  55.0074910
  71.6668886  20.7927847  56.1565701  70.7585764  20.7243255  55.8624461
  71.6156482  21.2699792  56.9847526  65.4885630  22.2685985  47.7949100
  65.3685255  22.7143036  48.6334580  64.7938218  22.6171303  47.2362638
  59.0793035  24.3692377  55.3448757  59.2085416  24.6226856  56.2588168
  58.3990486  24.9620085  55.0253412  63.2492522  35.0389627  51.4439231
  63.1716552  35.9897452  51.5227711  62.6454166  34.6935500  52.1014157
  65.7409752  22.2117492  64.1000598  64.9643086  22.7711413  64.0903462
  66.3800315  22.6974275  64.6215468  73.5330533  18.9944285  57.9343574
  72.8904913  19.2876818  57.2883369  73.0285461  18.8797206  58.7396771
  71.1870696  22.7407458  48.6229434  72.0988552  22.9734845  48.4477131
  70.6780343  23.3244503  48.0604512  63.9956124  25.0202946  63.6618565
  64.7370809  25.5587990  63.3853388  63.2893110  25.6469235  63.8190117
  69.4711464  27.1632086  62.2590726  69.8794820  26.7214497  61.5145359
  68.7488725  26.5884714  62.5124919  65.8242534  22.1004693  59.6324283
  66.6703729  22.5244107  59.7758932  65.7641172  21.4438317  60.3262846
  69.7940279  27.7233277  56.0143015  69.1649141  27.8878991  55.3119083
  69.4065941  28.1374886  56.7853979  73.6729510  28.6587715  53.3687379
  72.9880549  29.0386616  52.8184412  73.7573360  29.2683041  54.1019327
  68.9741979  19.7609061  61.2905457  68.7302911  20.5151122  60.7539733
  69.2501910  20.1394409  62.1252704  70.9280442  26.3047674  59.9682722
  71.1397337  26.9479434  59.2917104  70.8810190  25.4709990  59.5004653
  68.5306671  18.9165494  56.8719295  67.6691150  19.2146748  57.1636032
  68.5569106  19.1335893  55.9400327  65.3468240  27.4607685  53.2793100
  65.8106586  27.7395388  52.4897723  65.0825039  26.5591130  53.0966191
  62.2392322  27.0079167  56.2172864  62.8093679  27.4366435  55.5790348
  62.8300433  26.7261751  56.9157049  64.2837127  23.5830837  50.0882665
  64.9861170  24.0351881  50.5556592  63.9517755  22.9414656  50.7162559
  62.7317488  22.1742594  64.4633875  62.1016149  22.8558875  64.6969272
  62.6253576  22.0625676  63.5187013  58.0262460  21.8414390  55.3899799
  57.2361514  22.0971919  54.9139910  58.5173708  22.6562728  55.4951840
  72.0426270  29.1819629  58.1405080  72.8643714  28.7799817  57.8587761
  72.0388673  29.0787863  59.0921196  59.9777206  22.2058969  52.3483276
  59.1808369  22.3177664  52.8666771  59.7502798  22.5445622  51.4824166
  65.8082873  28.7303673  60.2965790  65.8727306  29.1924080  61.1323962
  65.0993797  28.1001037  60.4248100  56.3100163  22.0944881  57.8214790
  56.5608202  22.9791890  58.0872366  56.8459712  21.9149482  57.0489882
  80.1332263  25.5258378  54.4890051  79.3795971  24.9565776  54.3334056
  80.2679804  25.4921042  55.4360686  65.5230891  30.3971780  50.1644771
  65.3876566  31.2423316  50.5929618  66.0640704  30.5991058  49.4010704
  62.0098231  16.4763360  66.8259126  61.6165176  15.9229558  67.5006770
  62.8264371  16.7873938  67.2165643  58.9760289  27.9147218  50.7372696
  59.4884809  28.7090468  50.8878260  59.6283001  27.2173509  50.6706297
  60.7855173  31.0312974  52.8195449  60.9621802  31.9530939  52.6316433
  61.5812007  30.7171394  53.2489829  64.9266192  17.8921239  64.4179382
  65.6675905  18.4928392  64.3383845  65.1584115  17.1498877  63.8597425
  60.0707530  23.0777606  62.6957612  59.9561045  22.1762863  62.9964711
  59.2152048  23.3241303  62.3442429  67.1499368  31.0195347  64.2945113
  66.7063222  30.2331725  63.9766017  67.8116581  31.2074497  63.6289003
  61.9086489  32.5491148  58.8205791  62.4593914  32.4208211  58.0482785
  61.0697965  32.8486037  58.4700684  69.2480606  31.2998146  62.3226514
  69.2299081  32.1207027  61.8306783  70.1700526  31.1752222  62.5476655
  65.7053660  28.8142276  63.1650022  66.2381997  28.0530564  62.9349330
  65.1767741  28.5215928  63.9074177  68.8723355  13.9202342  58.6943664
  68.5287624  14.8103984  58.6182775  69.2402317  13.7304000  57.8313249
  56.9409205  26.2435872  51.5132266  57.7784427  26.6532881  51.2965974
  57.1187473  25.3035315  51.4832460  68.8373637  23.9110953  47.2016099
  68.3220261  24.6815558  47.4404487  68.5650946  23.2376089  47.8249161
  66.4220748  18.7560654  52.2601338  65.5662345  18.3667504  52.0806976
  66.8347700  18.8352615  51.4001123  67.9519895  16.2906997  56.6592897
  67.4484691  16.2537132  55.8460703  68.2450502  17.1999740  56.7189554
  64.1962781  16.3745727  55.6659079  65.0615778  16.1788535  55.3064969
  64.2640290  16.1456079  56.5928436  73.8107912  26.6643308  49.1369273
  73.0337354  26.3254467  48.6924435  74.4899393  26.6695931  48.4624238
  68.6259941  21.7838045  49.0275880  68.3210076  22.0984194  49.8786024
  69.5790383  21.8619465  49.0703213  67.0706372  27.9428268  50.6768834
  66.5427734  27.2081028  50.3642072  66.5693875  28.7202945  50.4308803
  72.0499218  26.1377289  55.7935881  71.3922893  26.8276550  55.8816009
  72.8539618  26.5273721  56.1369867  61.8025100  18.6047935  53.0375446
  62.3768852  18.3823116  52.3048639  62.3896082  18.6736629  53.7904047
  70.8604677  24.4921662  53.8439822  71.3736559  25.1251653  54.3461532
  71.5105901  23.8922857  53.4783182  62.1294687  20.6352396  47.0571331
  61.2931999  20.9727082  47.3780606  61.9899457  20.5001376  46.1198468
  64.1047768  15.4789184  51.7650515  63.4512180  15.1638201  51.1407130
  64.0628242  14.8564924  52.4910338  65.2158973  25.7608479  43.6803807
  64.3086034  25.5297732  43.8794956  65.7130005  24.9646098  43.8677789
  68.1227051  34.4705986  46.6000494  67.4488750  34.7737683  47.2085451
  68.5092873  35.2735066  46.2505951  67.3385508  21.9671117  56.0898163
  66.4208069  22.1886064  55.9319851  67.7545652  22.0417428  55.2309870
  68.1220556  23.3662533  51.2200843  68.8692375  23.8783930  50.9107965
  68.3912145  23.0446586  52.0805237  66.3947206  25.8621074  48.2027797
  65.4858425  25.5780106  48.3000267  66.4242290  26.2820152  47.3431104
  71.6266473  29.4727663  51.9718965  71.1728801  28.6318573  52.0284156
  70.9960440  30.1089061  52.3093745  70.5699393  20.4019649  53.2019632
  69.8322150  19.8897035  53.5329875  70.8226167  19.9620031  52.3902909
  70.0699413  31.3104160  52.9068783  70.3622387  31.8709217  52.1881149
  70.5798033  31.6032721  53.6621942  70.6711020  13.1795901  53.7961402
  70.9769897  12.3193265  53.5087317  71.3963625  13.7713521  53.5960396
  56.9635376  23.5826588  52.1843000  56.7659776  22.9895948  51.4594066
  56.4082040  23.2778798  52.9018938  64.9432100  23.4749694  54.3037593
  64.9980710  22.5223531  54.2280069  64.1323302  23.6309133  54.7878891
  66.0923294  27.4029817  45.5415876  65.6542724  26.6865676  45.0821513
  66.8333735  27.6305932  44.9800967  62.8824460  22.0926754  52.0627972
  62.0692326  22.3920924  52.4693164  63.3783454  21.6982443  52.7802454
  65.0333038  32.0884511  53.9962236  64.9909217  32.3145357  53.0670768
  65.9495737  31.8547885  54.1448038  68.4798672  22.5568578  60.8942866
  68.8348059  22.7840052  61.7537331  69.1270803  22.8886955  60.2720121
  74.2096409  25.6787014  51.5992195  74.0714307  25.8688610  50.6713384
  73.8532627  26.4406397  52.0560246  62.3738535  19.6645109  57.6789207
  63.0137914  19.5233869  56.9812170  61.5416065  19.3779623  57.3027809
  74.2365788  27.7463541  56.6103466  74.6702295  27.6538830  57.4586520
  74.9497369  27.7221042  55.9723482  63.1498839  28.9647540  53.7924199
  63.9439437  28.4697860  53.5906774  62.4390531  28.4365403  53.4291905
  67.9693683  31.3465635  58.1436567  68.0230705  31.9156572  58.9114283
  67.1008465  31.5167520  57.7790604  59.4581602  23.1090622  49.8683952
  58.5279190  23.0475077  50.0853914  59.5539074  22.5866574  49.0720593
  59.3767151  19.6345434  52.4562193  59.6373968  20.5490768  52.3471354
  60.1984324  19.1669877  52.6058806  60.8492077  21.0483192  59.6261018
  61.5215130  20.8400554  58.9773667  60.0221863  20.8505278  59.1866250
  75.0981338  27.7887242  59.1436352  75.2917228  28.6933052  59.3895626
  74.9981956  27.3294661  59.9774937  66.7517649  17.6745132  61.6426679
  66.1045564  18.3735082  61.5491155  67.5218664  18.1081276  62.0102927
  70.1596446  27.9393985  64.7177232  70.0081953  27.7104536  63.8007316
  70.1501126  28.8964586  64.7308577  66.9281783  25.5125897  59.7023499
  67.8573843  25.6637057  59.5292466  66.5072813  25.6009918  58.8472145
  65.7270115  29.5376562  57.4722036  65.5881200  29.1695346  58.3447974
  64.9384711  30.0524201  57.3005994  66.3218267  34.6385658  48.8147573
  66.4970022  34.1673701  49.6293195  65.6351055  35.2651424  49.0428833
  67.2775330  28.9158165  54.8610874  66.9425162  28.8758934  55.7568524
  66.7779275  28.2502880  54.3881284  61.2519574  24.3225795  60.3863455
  61.1139372  23.5906033  60.9874994  62.1624497  24.2334695  60.1047643
  70.2134521  26.2614199  45.1347934  69.5963692  25.5361027  45.0380986
  69.7451010  27.0223559  44.7915008  63.8801874  24.0345754  59.8747135
  64.5901493  23.3938946  59.8333753  63.8371183  24.2858649  60.7973316
  71.8688653  30.9713107  62.7953714  71.8101199  30.2872327  62.1284297
  72.2708172  31.7132097  62.3434340  62.5930808  21.0210972  61.6942774
  62.0568165  20.5701710  62.3464371  62.0047517  21.1556881  60.9513239
  60.8879352  37.7875021  55.5887433  61.1275950  38.4193545  56.2666451
  60.0448548  37.4363061  55.8752792  62.0033067  20.4799623  44.2569238
  61.1262534  20.3588424  43.8931485  62.4790820  19.6885701  44.0048127
  71.8706060  28.9352691  61.0267694  70.9832839  28.5978613  61.1494093
  72.4404611  28.2035722  61.2636459  53.5235208  25.2676783  54.3510745
  54.2106247  24.9538513  53.7631760  53.3683336  26.1718148  54.0777996
  58.3269930  20.1566979  58.7795769  58.2428118  19.5492649  58.0446179
  57.5052636  20.6475998  58.7805265  65.4007214  33.5954143  57.9928937
  65.3277385  34.4009115  58.5048241  64.9584607  33.7946109  57.1676958
  65.1896993  32.8325914  51.5031758  64.4064515  33.3747594  51.5969983
  65.8889739  33.3499893  51.9026000  68.4993644  18.6420543  54.1465964
  68.9962343  17.8890505  53.8267034  67.7280625  18.6784860  53.5809173
  76.3523401  24.3460909  55.7884255  76.3413277  25.2285624  55.4178188
  75.4840780  23.9932459  55.5938792  67.8605897  33.4940978  60.1487096
  68.5733870  34.1288442  60.0762997  67.3695926  33.5904844  59.3327097
  69.5823424  27.3992230  51.7204387  68.6479703  27.5193693  51.5509092
  69.7600093  26.4964697  51.4564397  65.0828612  20.7837926  53.8737648
  64.7126400  20.2308966  54.5618554  65.5787705  20.1796059  53.3212648
  72.9695976  23.2409549  52.2554421  73.4356428  24.0737541  52.1814724
  73.4203476  22.7754531  52.9599680  62.9117811  31.2435421  60.9692666
  63.6127270  31.8771904  61.1222061  62.4412926  31.5850153  60.2088306
  71.0372207  29.5853371  49.2540573  71.3132051  29.4709965  50.1634447
  70.1676705  29.1870856  49.2152746  70.9412638  15.6090136  56.2945323
  70.0275718  15.8394363  56.4627530  71.3705740  15.6928581  57.1459355
  70.7119097  23.7980028  58.7945217  70.0590547  24.0455936  58.1397669
  71.0899477  22.9844167  58.4607694  67.6726271  33.8339722  52.8973387
  67.8548665  33.0161378  53.3601139  68.4959257  34.0507414  52.4598277
  68.0068436  32.7607907  50.1588435  68.5356203  32.2500361  49.5458598
  68.2696656  32.4450437  51.0233969  66.7606670  24.5399840  65.2811254
  66.0847307  24.4393969  65.9513629  67.5834304  24.3839053  65.7447251
  58.5085529  30.7771776  57.9023769  59.0938966  30.0315464  58.0351673
  58.3110367  31.0875733  58.7860433  61.3624184  33.8123023  52.9186211
  60.6934559  34.2969151  52.4350251  61.2237054  34.0592244  53.8329590
  53.1003184  23.3477376  56.6228212  53.1387283  22.8140967  57.4165330
  52.5943476  22.8212582  56.0039189  65.5029453  35.8466767  59.5168870
  66.0547761  36.0098388  60.2817955  65.8435646  36.4371205  58.8448895
  60.4793946  18.1941917  60.1190754  60.5435272  19.0556748  59.7068152
  60.4161066  17.5815918  59.3863113  59.9546218  20.2665049  63.7663789
  60.5818257  19.8842127  64.3801313  59.0974137  20.0479251  64.1319481
  70.3540327  30.6728024  65.3717524  70.8980231  31.2857983  64.8772479
  69.7727172  31.2307603  65.8884537  56.7311761  22.0741478  49.6982144
  57.0265202  21.1652157  49.6449197  55.8299797  22.0529218  49.3763146
  68.6397840  33.7948742  56.5032552  68.5148979  32.9938482  55.9943497
  69.2976931  34.2894936  56.0146522  60.2606008  20.1497475  55.6809692
  59.5392594  20.7633443  55.5417165  61.0499264  20.6855240  55.6026338
  70.7032748  31.5957763  58.1312102  69.7563084  31.4763114  58.0590429
  71.0515521  30.7080261  58.2138363  63.0632322  17.4851901  61.9550344
  63.5866724  17.7314198  62.7176653  62.8444655  18.3171936  61.5353481
  58.4599603  19.7555576  49.8221469  58.1312309  18.8752955  49.6396575
  58.8138973  19.7003245  50.7097858  67.7079182  31.3910479  54.3316454
  67.5604144  30.4627186  54.5124024  68.5332675  31.4130569  53.8473530
  61.5741426  20.0428546  50.1896946  61.9137498  20.5714467  49.4675555
  62.0213546  20.3808952  50.9655513  71.3113304  32.2139038  55.4181327
  72.2359851  32.0081899  55.2805778  71.1428607  31.9655439  56.3270669
  64.2684867  18.4265597  59.6400014  63.9281687  17.6273410  60.0420694
  63.5623873  18.7267307  59.0676848  64.9201339  15.5114909  58.0927337
  65.7427408  15.0375387  57.9706228  65.1639402  16.2905393  58.5926024
  63.5609573  18.5403167  48.3890239  64.2817936  18.9184420  47.8853956
  62.9374877  19.2592044  48.4925217  67.7040696  19.2448316  49.3248572
  67.9204310  20.1272954  49.0237400  67.2234763  18.8534530  48.5954213
  62.4439917  22.2034030  55.9019316  62.2984498  22.5174333  56.7943598
  61.9665121  22.8218930  55.3490215  64.3036300  19.1936578  55.9500206
  64.2897869  18.2977671  55.6132504  65.0208728  19.2007241  56.5838492
  66.1562431  19.6273918  57.9953333  65.8980209  20.5490988  57.9937664
  65.6247471  19.2304352  58.6853797  71.1008620  32.7324705  50.7743418
  71.2745497  32.1671127  50.0217271  71.5937511  33.5325600  50.5922908
  56.9185580  24.7439374  58.8406977  56.3739048  25.5199182  58.9727252
  57.7964929  25.0910179  58.6826099  63.7073196  18.0750958  51.2187776
  63.8289107  17.1467604  51.4178663  63.4175239  18.0889644  50.3066091
  66.5764387  15.7605868  54.3554496  66.5986083  15.8245201  53.4006475
  66.9932446  14.9210377  54.5495002  76.9548011  25.4961128  52.3933718
  77.3979157  24.7468453  51.9952841  76.0774521  25.4871264  52.0107450
  72.0883792  32.0491469  47.8740317  72.7834697  32.6698162  48.0927631
  72.4306942  31.1986821  48.1492695  57.7051601  23.8709270  61.7337134
  56.9633337  24.0191906  62.3201765  57.3844346  24.1317536  60.8703884
  73.9875215  29.4991175  49.4027648  74.5126539  29.8378448  48.6776968
  73.8997568  28.5638190  49.2190782  65.6495264  33.4125249  61.5317524
  65.9582390  33.1674395  62.4040224  66.4470746  33.6171887  61.0436394
  65.6715876  35.5663158  53.7622901  65.2320866  35.0739537  54.4555757
  66.4223993  35.0236126  53.5214976  58.1508215  31.7574699  53.7647529
  58.9766235  31.4578471  53.3846172  57.8002267  30.9882321  54.2137317
  63.1189748  31.1101167  55.8345202  62.4969758  30.4471872  55.5347430
  63.7894615  31.1362299  55.1518850  56.3516820  29.6761025  54.7236462
  55.5148728  29.2483200  54.5420464  56.3240466  29.8693469  55.6607254
  63.1914276  19.5882955  65.4277708  63.2402431  20.4645078  65.0455478
  63.7336790  19.0460348  64.8549352  73.6769121  30.1324079  64.7078845
  72.8864665  30.1148217  64.1683345  73.4402476  30.6712372  65.4627882
  73.7966996  26.9816545  62.0211574  73.8465001  26.8166552  62.9627097
  73.6880920  26.1143804  61.6309455  62.6803255  29.6605091  49.3103663
  62.8291376  30.3440555  48.6570336  63.4869699  29.6410181  49.8253119
  71.0870759  22.9647473  63.3370881  71.9880622  22.8253938  63.0454879
  71.1618733  23.1301928  64.2769058  65.4213564  20.3414328  62.1824067
  64.5516874  20.6347894  61.9106656  65.6573045  20.9254773  62.9031331
  75.2985193  29.4013486  62.2653596  75.0070002  29.7643467  63.1017057
  74.6857325  28.6880495  62.0866928  76.4980876  26.9666366  54.7856166
  77.3327767  27.4056170  54.9493726  76.6340004  26.4905019  53.9664412
  73.5472382  24.5246101  60.7333654  74.0226503  24.7173747  59.9252505
  72.6237947  24.5805287  60.4877037  60.4355888  25.6870268  50.3164732
  60.1901930  24.7832598  50.5144942  60.6051803  25.6887419  49.3744210
  68.1252598  16.5593945  59.6989487  68.6434542  17.2954972  59.3735976
  67.7707731  16.8657938  60.5336247  59.7051536  21.4198626  47.8150893
  59.0120781  21.4942981  47.1590929  59.4603288  20.6558969  48.3372410
  68.3765192  12.9794227  55.2190384  68.6566946  12.3117416  55.8450811
  69.1615799  13.1723323  54.7065048  66.1798661  32.1553221  46.7815410
  65.6072628  32.7743408  46.3285882  66.7531454  32.7052583  47.3155332
  72.2474051  21.4011861  58.9661959  73.1991473  21.5009959  58.9874183
  72.0777501  20.6090130  59.4760044  70.2688430  18.4867444  59.1521360
  69.6738362  18.7672457  58.4567849  69.9838127  18.9761345  59.9238101
  69.3995920  32.4390371  47.9123993  70.3326594  32.3735933  48.1156868
  69.3119133  33.2746638  47.4538525  72.0283937  31.7556242  44.8727940
  71.9497569  31.4216105  45.7663698  72.8493604  32.2478009  44.8719413
  74.7262128  24.6217981  58.0804259  74.6938448  23.6833982  58.2663943
  75.3362752  24.7002018  57.3470084  66.5645459  23.4914034  44.1231463
  67.5104564  23.3620242  44.1919881  66.1859704  22.7528696  44.6000891
  74.8756617  21.4129024  58.1262542  74.3595665  20.6287481  57.9392471
  75.7596565  21.0847741  58.2909061  72.5367344  15.1570040  54.0858355
  72.3392165  14.8485128  54.9701687  73.1467049  15.8831679  54.2156285
  80.5438678  25.6833988  57.2210296  81.2742067  25.4219276  57.7817999
  79.9345624  24.9462710  57.2612364  78.6253975  23.8241850  57.8184747
  77.8987139  23.6897815  57.2101238  78.2101262  24.1318679  58.6241465
  66.4484152  27.5431780  65.5832120  67.3687161  27.7210379  65.7772166
  66.4133735  26.5987825  65.4311819  64.7488376  21.4164010  44.0586348
  63.8419832  21.1197123  44.1349062  65.0264357  21.1193828  43.1920634
  55.6666317  22.7370374  54.5085394  55.3469101  21.8835682  54.2159768
  55.1199745  22.9518952  55.2643362  59.4446224  25.4532815  58.2254901
  59.6632234  26.3849922  58.2442935  59.8571998  25.0940789  59.0109705
  66.3650442  15.9600900  50.2130589  65.5551170  15.6147985  50.5885835
  67.0534859  15.6508444  50.8018201  68.2940990  15.0378947  51.8354886
  68.8472029  15.4574400  52.4944909  68.5311077  14.1114695  51.8777842
  64.3174090  21.0266020  67.6157650  64.2170816  21.9760377  67.5469741
  64.0995632  20.6984259  66.7433720  63.5187161  18.2750945  44.1998327
  64.3806325  18.6005844  44.4594145  63.7037505  17.4882441  43.6871393
  55.5354577  26.3573285  56.4778516  54.8418048  25.9427238  55.9648470
  56.2827568  26.3993822  55.8811935  71.6719797  17.1479472  51.3433550
  71.0918466  17.8064276  50.9611603  71.4055730  16.3256816  50.9320968
  70.1223364  16.5484530  53.5454871  70.6223142  16.6601064  52.7369189
  70.7658972  16.2445582  54.1855679  64.1805360  24.4563159  66.4322712
  63.6972441  25.2563519  66.6386601  64.2666299  24.4671104  65.4790156
  57.4491319  26.2891539  54.3544531  57.4262007  26.3879226  53.4026414
  57.7591956  27.1356690  54.6761697  60.1078697  28.3467694  58.4691145
  61.0621951  28.3151636  58.4021077  59.9091221  27.8858318  59.2841371
  60.6978079  26.9168810  61.0361943  61.5170968  27.4112889  61.0596780
  60.9714887  26.0000778  61.0079511  70.4544675  19.3079562  50.3989899
  69.5670530  19.5929213  50.1810093  70.8698665  19.1473326  49.5517175
  73.8059212  19.3326083  54.1144238  74.5819602  19.8222536  54.3868855
  73.0807346  19.7584137  54.5716107  76.2431770  20.0453702  55.1718178
  76.8376261  19.8049438  54.4611487  76.3158354  19.3260833  55.7991715
  58.4628926  33.8887313  55.4861343  58.3283394  33.1287714  54.9199341
  58.0460988  34.6128213  55.0190132  69.5987889  29.0724237  44.4937919
  70.3023739  29.2774239  45.1095574  68.8750538  29.6400999  44.7587002
  70.4285699  24.8234098  50.6140189  70.3720901  25.2802650  49.7747821
  70.9814042  24.0624783  50.4363031  74.2390505  20.6123830  51.4390308
  73.9827439  20.2120466  52.2698516  73.6143373  21.3267624  51.3140447
  78.5502843  23.3519903  53.9461600  77.9902401  23.4213093  54.7193162
  77.9446346  23.1760888  53.2261096  61.6198052  34.7856630  55.6979786
  61.5030436  35.7302063  55.5958476  60.7990498  34.4830192  56.0865585
  71.5074586  29.5106766  46.5436379  72.3420190  29.0787965  46.3613853
  71.3458929  29.3388780  47.4713273  71.1620479  26.0138879  47.9092718
  71.1069282  25.8483151  46.9681162  70.5366534  26.7214912  48.0654908
  55.9512993  21.2506944  61.7354140  56.5971857  20.7405898  62.2241365
  55.7430145  21.9875625  62.3097565  68.4766386  28.3187791  67.2346281
  69.3457545  28.4928444  66.8732916  67.9973137  29.1382208  67.1122010
  64.4716604  15.5146988  47.4878036  64.4595274  16.4588828  47.6446307
  65.3640026  15.3317134  47.1937497  62.6452566  35.4384892  58.9135714
  63.5479813  35.4708503  59.2302209  62.4189936  34.5085343  58.9282050
  64.4006168  34.1915879  55.5745793  63.4501799  34.1917740  55.4610165
  64.7038654  33.4448613  55.0581828  68.2868723  12.1089765  51.7423973
  67.5201119  11.5548252  51.8880655  68.6979428  12.1811634  52.6038125
  60.2910484  18.3974561  65.8329154  61.1541946  18.0411366  66.0432479
  59.7175895  18.0588456  66.5204559  80.1358861  40.0276417  56.6391555
  80.7737271  39.9083165  55.9354895  80.0179704  40.9757261  56.6979507
  76.9448568  39.9803845  56.5753080  76.6067079  39.8644910  55.6873615
  77.8138336  39.5795010  56.5554086  72.8035383  41.8339322  52.5649971
  72.2400249  41.7429259  51.7966259  72.6887778  41.0139226  53.0452463
  77.4268351  41.1338697  62.5339286  77.4156991  40.7391495  61.6619789
  77.5888990  40.4004770  63.1273057  70.3499815  43.3290513  55.4034191
  71.1421107  42.9881338  54.9880491  70.5896465  43.4385488  56.3236345
  78.3834942  45.5010289  47.8764436  77.7322922  46.0864370  47.4898450
  79.1779305  46.0316484  47.9359473  72.3090569  42.5899427  48.2751570
  73.0821445  42.0428414  48.1364446  72.6615968  43.4543676  48.4866032
  74.1475612  43.9175809  61.4818470  73.8565478  44.8221440  61.3665136
  74.7832596  43.9592336  62.1962539  75.0731819  41.2952657  58.0719829
  75.6695391  41.0708680  57.3576792  75.1306790  40.5537403  58.6745277
  74.6456847  38.7492093  45.9070020  74.8982368  38.2273614  45.1453483
  73.7081406  38.5858238  46.0096704  79.6900130  37.7527871  53.7144763
  80.4763219  37.3347294  53.3635180  79.9538834  38.6573963  53.8826412
  79.8610207  43.1900721  48.4133420  79.2256040  43.2635348  49.1254325
  79.5307614  43.7794320  47.7352499  85.0908557  37.6903104  54.6177742
  85.8233729  37.1202321  54.8515571  84.3347913  37.3024705  55.0584247
  74.3653136  40.6520199  48.1094395  74.2489394  39.9765102  48.7775479
  74.4755396  40.1652573  47.2926548  76.7084677  40.1130346  51.8141084
  76.3442884  39.5860967  52.5254006  77.5651793  39.7228815  51.6407570
  82.6133977  31.4024678  59.0772350  82.2817302  32.2720089  58.8533565
  82.0179591  31.0860962  59.7566381  76.3490164  35.1420245  46.8102433
  76.5164566  36.0100482  47.1772904  76.1587333  35.3047527  45.8863722
  79.1065497  43.6037224  58.4768263  78.8066220  44.5062263  58.3684070
  78.7616556  43.3369408  59.3289416  72.5577978  40.0551021  54.5104968
  71.6328475  39.9227235  54.7182659  72.8062392  40.8345240  55.0074910
  82.5062641  36.1219765  56.1565701  81.5979518  36.0535173  55.8624461
  82.4550236  36.5991710  56.9847526  76.3279385  37.5977903  47.7949100
  76.2079010  38.0434954  48.6334580  75.6331973  37.9463221  47.2362638
  69.9186789  39.6984295  55.3448757  70.0479171  39.9518774  56.2588168
  69.2384241  40.2912003  55.0253412  74.0886277  50.3681545  51.4439231
  74.0110306  51.3189370  51.5227711  73.4847920  50.0227417  52.1014157
  76.5803506  37.5409410  64.1000598  75.8036841  38.1003330  64.0903462
  77.2194070  38.0266193  64.6215468  84.3724287  34.3236203  57.9343574
  83.7298667  34.6168736  57.2883369  83.8679216  34.2089123  58.7396771
  82.0264451  38.0699376  48.6229434  82.9382307  38.3026763  48.4477131
  81.5174098  38.6536420  48.0604512  74.8349879  40.3494864  63.6618565
  75.5764563  40.8879907  63.3853388  74.1286864  40.9761152  63.8190117
  80.3105218  42.4924004  62.2590726  80.7188574  42.0506415  61.5145359
  79.5882480  41.9176632  62.5124919  76.6636288  37.4296611  59.6324283
  77.5097484  37.8536024  59.7758932  76.6034926  36.7730235  60.3262846
  80.6334033  43.0525195  56.0143015  80.0042896  43.2170909  55.3119083
  80.2459695  43.4666804  56.7853979  84.5123265  43.9879632  53.3687379
  83.8274303  44.3678534  52.8184412  84.5967114  44.5974959  54.1019327
  79.8135734  35.0900979  61.2905457  79.5696666  35.8443040  60.7539733
  80.0895664  35.4686327  62.1252704  81.7674197  41.6339591  59.9682722
  81.9791092  42.2771351  59.2917104  81.7203945  40.8001908  59.5004653
  79.3700426  34.2457412  56.8719295  78.5084905  34.5438666  57.1636032
  79.3962860  34.4627811  55.9400327  76.1861995  42.7899603  53.2793100
  76.6500340  43.0687306  52.4897723  75.9218793  41.8883047  53.0966191
  73.0786076  42.3371084  56.2172864  73.6487433  42.7658353  55.5790348
  73.6694188  42.0553669  56.9157049  75.1230881  38.9122755  50.0882665
  75.8254924  39.3643799  50.5556592  74.7911509  38.2706574  50.7162559
  73.5711243  37.5034512  64.4633875  72.9409903  38.1850793  64.6969272
  73.4647330  37.3917593  63.5187013  68.8656215  37.1706308  55.3899799
  68.0755269  37.4263836  54.9139910  69.3567462  37.9854646  55.4951840
  82.8820025  44.5111547  58.1405080  83.7037468  44.1091734  57.8587761
  82.8782427  44.4079781  59.0921196  70.8170960  37.5350887  52.3483276
  70.0202124  37.6469581  52.8666771  70.5896553  37.8737539  51.4824166
  76.6476628  44.0595590  60.2965790  76.7121060  44.5215997  61.1323962
  75.9387552  43.4292955  60.4248100  67.1493918  37.4236798  57.8214790
  67.4001956  38.3083808  58.0872366  67.6853466  37.2441400  57.0489882
  90.9726018  40.8550295  54.4890051  90.2189726  40.2857693  54.3334056
  91.1073559  40.8212960  55.4360686  76.3624646  45.7263698  50.1644771
  76.2270320  46.5715233  50.5929618  76.9034458  45.9282975  49.4010704
  72.8491985  31.8055278  66.8259126  72.4558931  31.2521476  67.5006770
  73.6658126  32.1165856  67.2165643  69.8154043  43.2439136  50.7372696
  70.3278564  44.0382386  50.8878260  70.4676756  42.5465426  50.6706297
  71.6248928  46.3604892  52.8195449  71.8015556  47.2822857  52.6316433
  72.4205761  46.0463311  53.2489829  75.7659946  33.2213157  64.4179382
  76.5069660  33.8220310  64.3383845  75.9977869  32.4790794  63.8597425
  70.9101284  38.4069524  62.6957612  70.7954799  37.5054781  62.9964711
  70.0545802  38.6533221  62.3442429  72.7480243  47.8783066  58.8205791
  73.2987668  47.7500129  58.0482785  71.9091719  48.1777955  58.4700684
  80.0874360  46.6290064  62.3226514  80.0692835  47.4498945  61.8306783
  81.0094280  46.5044139  62.5476655  76.5447414  44.1434194  63.1650022
  77.0775751  43.3822482  62.9349330  76.0161495  43.8507845  63.9074177
  79.7117109  29.2494260  58.6943664  79.3681379  30.1395901  58.6182775
  80.0796072  29.0595917  57.8313249  67.7802960  41.5727790  51.5132266
  68.6178182  41.9824798  51.2965974  67.9581227  40.6327232  51.4832460
  79.6767392  39.2402871  47.2016099  79.1614015  40.0107475  47.4404487
  79.4044700  38.5668007  47.8249161  77.2614503  34.0852571  52.2601338
  76.4056099  33.6959422  52.0806976  77.6741455  34.1644532  51.4001123
  78.7913650  31.6198915  56.6592897  78.2878445  31.5829050  55.8460703
  79.0844256  32.5291657  56.7189554  75.0356535  31.7037644  55.6659079
  75.9009532  31.5080453  55.3064969  75.1034044  31.4747996  56.5928436
  84.6501666  41.9935225  49.1369273  83.8731109  41.6546385  48.6924435
  85.3293147  41.9987848  48.4624238  79.4653695  37.1129963  49.0275880
  79.1603831  37.4276112  49.8786024  80.4184137  37.1911383  49.0703213
  77.9100127  43.2720186  50.6768834  77.3821488  42.5372946  50.3642072
  77.4087630  44.0494862  50.4308803  82.8892973  41.4669207  55.7935881
  82.2316647  42.1568468  55.8816009  83.6933372  41.8565639  56.1369867
  72.6418855  33.9339852  53.0375446  73.2162606  33.7115034  52.3048639
  73.2289837  34.0028547  53.7904047  81.6998432  39.8213579  53.8439822
  82.2130313  40.4543571  54.3461532  82.3499656  39.2214775  53.4783182
  72.9688442  35.9644313  47.0571331  72.1325754  36.3019000  47.3780606
  72.8293211  35.8293293  46.1198468  74.9441522  30.8081101  51.7650515
  74.2905935  30.4930118  51.1407130  74.9021996  30.1856842  52.4910338
  76.0552727  41.0900396  43.6803807  75.1479789  40.8589650  43.8794956
  76.5523759  40.2938016  43.8677789  78.9620806  49.7997904  46.6000494
  78.2882505  50.1029600  47.2085451  79.3486628  50.6026984  46.2505951
  78.1779263  37.2963035  56.0898163  77.2601824  37.5177982  55.9319851
  78.5939406  37.3709345  55.2309870  78.9614310  38.6954451  51.2200843
  79.7086129  39.2075848  50.9107965  79.2305900  38.3738503  52.0805237
  77.2340961  41.1912991  48.2027797  76.3252180  40.9072024  48.3000267
  77.2636044  41.6112070  47.3431104  82.4660228  44.8019581  51.9718965
  82.0122555  43.9610491  52.0284156  81.8354195  45.4380979  52.3093745
  81.4093148  35.7311567  53.2019632  80.6715904  35.2188953  53.5329875
  81.6619921  35.2911948  52.3902909  80.9093167  46.6396077  52.9068783
  81.2016142  47.2001135  52.1881149  81.4191788  46.9324638  53.6621942
  81.5104775  28.5087819  53.7961402  81.8163652  27.6485182  53.5087317
  82.2357380  29.1005439  53.5960396  67.8029131  38.9118505  52.1843000
  67.6053531  38.3187866  51.4594066  67.2475795  38.6070716  52.9018938
  75.7825855  38.8041612  54.3037593  75.8374464  37.8515448  54.2280069
  74.9717057  38.9601051  54.7878891  76.9317048  42.7321735  45.5415876
  76.4936478  42.0157594  45.0821513  77.6727489  42.9597850  44.9800967
  73.7218215  37.4218672  52.0627972  72.9086080  37.7212842  52.4693164
  74.2177209  37.0274360  52.7802454  75.8726792  47.4176429  53.9962236
  75.8302971  47.6437275  53.0670768  76.7889491  47.1839803  54.1448038
  79.3192426  37.8860496  60.8942866  79.6741814  38.1131969  61.7537331
  79.9664557  38.2178873  60.2720121  85.0490163  41.0078932  51.5992195
  84.9108062  41.1980528  50.6713384  84.6926382  41.7698315  52.0560246
  73.2132289  34.9937027  57.6789207  73.8531669  34.8525786  56.9812170
  72.3809820  34.7071540  57.3027809  85.0759543  43.0755459  56.6103466
  85.5096049  42.9830748  57.4586520  85.7891123  43.0512959  55.9723482
  73.9892593  44.2939458  53.7924199  74.7833192  43.7989778  53.5906774
  73.2784286  43.7657321  53.4291905  78.8087438  46.6757553  58.1436567
  78.8624460  47.2448489  58.9114283  77.9402219  46.8459438  57.7790604
  70.2975357  38.4382539  49.8683952  69.3672945  38.3766995  50.0853914
  70.3932829  37.9158492  49.0720593  70.2160906  34.9637352  52.4562193
  70.4767723  35.8782685  52.3471354  71.0378078  34.4961795  52.6058806
  71.6885831  36.3775109  59.6261018  72.3608884  36.1692471  58.9773667
  70.8615618  36.1797195  59.1866250  85.9375092  43.1179160  59.1436352
  86.1310982  44.0224970  59.3895626  85.8375710  42.6586579  59.9774937
  77.5911403  33.0037050  61.6426679  76.9439318  33.7027000  61.5491155
  78.3612418  33.4373194  62.0102927  80.9990201  43.2685902  64.7177232
  80.8475707  43.0396454  63.8007316  80.9894880  44.2256504  64.7308577
  77.7675537  40.8417815  59.7023499  78.6967597  40.9928975  59.5292466
  77.3466567  40.9301836  58.8472145  76.5663869  44.8668480  57.4722036
  76.4274955  44.4987264  58.3447974  75.7778465  45.3816119  57.3005994
  77.1612021  49.9677576  48.8147573  77.3363777  49.4965619  49.6293195
  76.4744809  50.5943342  49.0428833  78.1169084  44.2450082  54.8610874
  77.7818917  44.2050852  55.7568524  77.6173030  43.5794798  54.3881284
  72.0913328  39.6517712  60.3863455  71.9533126  38.9197951  60.9874994
  73.0018252  39.5626612  60.1047643  81.0528276  41.5906117  45.1347934
  80.4357447  40.8652945  45.0380986  80.5844764  42.3515477  44.7915008
  74.7195629  39.3637672  59.8747135  75.4295247  38.7230864  59.8333753
  74.6764937  39.6150566  60.7973316  82.7082408  46.3005025  62.7953714
  82.6494954  45.6164245  62.1284297  83.1101926  47.0424015  62.3434340
  73.4324563  36.3502889  61.6942774  72.8961920  35.8993628  62.3464371
  72.8441271  36.4848798  60.9513239  71.7273106  53.1166939  55.5887433
  71.9669705  53.7485463  56.2666451  70.8842303  52.7654979  55.8752792
  72.8426822  35.8091541  44.2569238  71.9656288  35.6880342  43.8931485
  73.3184575  35.0177619  44.0048127  82.7099815  44.2644609  61.0267694
  81.8226594  43.9270531  61.1494093  83.2798366  43.5327640  61.2636459
  64.3628962  40.5968701  54.3510745  65.0500002  40.2830431  53.7631760
  64.2077091  41.5010065  54.0777996  69.1663684  35.4858897  58.7795769
  69.0821873  34.8784567  58.0446179  68.3446391  35.9767915  58.7805265
  76.2400968  48.9246061  57.9928937  76.1671140  49.7301033  58.5048241
  75.7978361  49.1238027  57.1676958  76.0290748  48.1617831  51.5031758
  75.2458270  48.7039511  51.5969983  76.7283493  48.6791811  51.9026000
  79.3387398  33.9712461  54.1465964  79.8356098  33.2182423  53.8267034
  78.5674380  34.0076777  53.5809173  87.1917155  39.6752826  55.7884255
  87.1807032  40.5577542  55.4178188  86.3234535  39.3224377  55.5938792
  78.6999652  48.8232895  60.1487096  79.4127624  49.4580360  60.0762997
  78.2089680  48.9196761  59.3327097  80.4217179  42.7284148  51.7204387
  79.4873457  42.8485610  51.5509092  80.5993847  41.8256615  51.4564397
  75.9222367  36.1129844  53.8737648  75.5520154  35.5600884  54.5618554
  76.4181459  35.5087977  53.3212648  83.8089730  38.5701467  52.2554421
  84.2750182  39.4029459  52.1814724  84.2597231  38.1046449  52.9599680
  73.7511565  46.5727339  60.9692666  74.4521025  47.2063822  61.1222061
  73.2806680  46.9142070  60.2088306  81.8765961  44.9145288  49.2540573
  82.1525805  44.8001883  50.1634447  81.0070460  44.5162773  49.2152746
  81.7806393  30.9382054  56.2945323  80.8669473  31.1686281  56.4627530
  82.2099494  31.0220498  57.1459355  81.5512851  39.1271946  58.7945217
  80.8984302  39.3747854  58.1397669  81.9293231  38.3136084  58.4607694
  78.5120025  49.1631639  52.8973387  78.6942420  48.3453295  53.3601139
  79.3353011  49.3799332  52.4598277  78.8462191  48.0899824  50.1588435
  79.3749957  47.5792279  49.5458598  79.1090410  47.7742355  51.0233969
  77.6000424  39.8691757  65.2811254  76.9241061  39.7685887  65.9513629
  78.4228058  39.7130971  65.7447251  69.3479283  46.1063694  57.9023769
  69.9332720  45.3607382  58.0351673  69.1504122  46.4167650  58.7860433
  72.2017939  49.1414941  52.9186211  71.5328314  49.6261069  52.4350251
  72.0630808  49.3884162  53.8329590  63.9396938  38.6769294  56.6228212
  63.9781038  38.1432885  57.4165330  63.4337231  38.1504499  56.0039189
  71.3187700  33.5233834  60.1190754  71.3829027  34.3848665  59.7068152
  71.2554821  32.9107836  59.3863113  70.7939973  35.5956967  63.7663789
  71.4212012  35.2134044  64.3801313  69.9367892  35.3771169  64.1319481
  81.1934082  46.0019942  65.3717524  81.7373986  46.6149900  64.8772479
  80.6120926  46.5599521  65.8884537  67.5705516  37.4033396  49.6982144
  67.8658957  36.4944074  49.6449197  66.6693551  37.3821136  49.3763146
  79.4791594  49.1240660  56.5032552  79.3542734  48.3230400  55.9943497
  80.1370686  49.6186854  56.0146522  71.0999763  35.4789393  55.6809692
  70.3786348  36.0925360  55.5417165  71.8893018  36.0147157  55.6026338
  81.5426503  46.9249680  58.1312102  80.5956838  46.8055031  58.0590429
  81.8909276  46.0372178  58.2138363  73.9026076  32.8143819  61.9550344
  74.4260478  33.0606116  62.7176653  73.6838410  33.6463854  61.5353481
  69.2993357  35.0847494  49.8221469  68.9706063  34.2044873  49.6396575
  69.6532728  35.0295162  50.7097858  78.5472936  46.7202396  54.3316454
  78.3997899  45.7919104  54.5124024  79.3726430  46.7422487  53.8473530
  72.4135180  35.3720464  50.1896946  72.7531253  35.9006385  49.4675555
  72.8607301  35.7100870  50.9655513  82.1507058  47.5430955  55.4181327
  83.0753605  47.3373817  55.2805778  81.9822361  47.2947356  56.3270669
  75.1078621  33.7557514  59.6400014  74.7675442  32.9565327  60.0420694
  74.4017628  34.0559225  59.0676848  75.7595093  30.8406827  58.0927337
  76.5821162  30.3667305  57.9706228  76.0033157  31.6197310  58.5926024
  74.4003328  33.8695085  48.3890239  75.1211690  34.2476338  47.8853956
  73.7768632  34.5883962  48.4925217  78.5434450  34.5740234  49.3248572
  78.7598065  35.4564872  49.0237400  78.0628518  34.1826448  48.5954213
  73.2833672  37.5325947  55.9019316  73.1378253  37.8466250  56.7943598
  72.8058875  38.1510848  55.3490215  75.1430055  34.5228495  55.9500206
  75.1291624  33.6269589  55.6132504  75.8602483  34.5299159  56.5838492
  76.9956185  34.9565836  57.9953333  76.7373963  35.8782906  57.9937664
  76.4641226  34.5596270  58.6853797  81.9402374  48.0616623  50.7743418
  82.1139252  47.4963045  50.0217271  82.4331265  48.8617518  50.5922908
  67.7579334  40.0731292  58.8406977  67.2132802  40.8491100  58.9727252
  68.6358684  40.4202096  58.6826099  74.5466951  33.4042876  51.2187776
  74.6682862  32.4759522  51.4178663  74.2568993  33.4181562  50.3066091
  77.4158141  31.0897786  54.3554496  77.4379838  31.1537119  53.4006475
  77.8326200  30.2502295  54.5495002  87.7941765  40.8253046  52.3933718
  88.2372911  40.0760371  51.9952841  86.9168276  40.8163182  52.0107450
  82.9277547  47.3783387  47.8740317  83.6228451  47.9990080  48.0927631
  83.2700697  46.5278738  48.1492695  68.5445356  39.2001188  61.7337134
  67.8027092  39.3483823  62.3201765  68.2238100  39.4609454  60.8703884
  84.8268970  44.8283093  49.4027648  85.3520294  45.1670365  48.6776968
  84.7391322  43.8930108  49.2190782  76.4889019  48.7417166  61.5317524
  76.7976145  48.4966313  62.4040224  77.2864501  48.9463805  61.0436394
  76.5109631  50.8955076  53.7622901  76.0714621  50.4031455  54.4555757
  77.2617748  50.3528044  53.5214976  68.9901970  47.0866617  53.7647529
  69.8159989  46.7870389  53.3846172  68.6396022  46.3174239  54.2137317
  73.9583503  46.4393085  55.8345202  73.3363512  45.7763790  55.5347430
  74.6288370  46.4654217  55.1518850  67.1910575  45.0052943  54.7236462
  66.3542483  44.5775118  54.5420464  67.1634220  45.1985387  55.6607254
  74.0308030  34.9174873  65.4277708  74.0796186  35.7936996  65.0455478
  74.5730544  34.3752266  64.8549352  84.5162876  45.4615996  64.7078845
  83.7258420  45.4440135  64.1683345  84.2796230  46.0004290  65.4627882
  84.6360751  42.3108463  62.0211574  84.6858756  42.1458470  62.9627097
  84.5274674  41.4435722  61.6309455  73.5197010  44.9897008  49.3103663
  73.6685130  45.6732473  48.6570336  74.3263453  44.9702098  49.8253119
  81.9264513  38.2939391  63.3370881  82.8274376  38.1545855  63.0454879
  82.0012488  38.4593845  64.2769058  76.2607319  35.6706245  62.1824067
  75.3910628  35.9639811  61.9106656  76.4966799  36.2546690  62.9031331
  86.1378948  44.7305404  62.2653596  85.8463756  45.0935385  63.1017057
  85.5251079  44.0172412  62.0866928  87.3374630  42.2958284  54.7856166
  88.1721521  42.7348088  54.9493726  87.4733759  41.8196937  53.9664412
  84.3866136  39.8538019  60.7333654  84.8620258  40.0465665  59.9252505
  83.4631701  39.9097205  60.4877037  71.2749643  41.0162186  50.3164732
  71.0295685  40.1124516  50.5144942  71.4445557  41.0179336  49.3744210
  78.9646352  31.8885862  59.6989487  79.4828296  32.6246889  59.3735976
  78.6101485  32.1949856  60.5336247  70.5445290  36.7490543  47.8150893
  69.8514535  36.8234898  47.1590929  70.2997042  35.9850887  48.3372410
  79.2158947  28.3086145  55.2190384  79.4960700  27.6409334  55.8450811
  80.0009554  28.5015240  54.7065048  77.0192415  47.4845139  46.7815410
  76.4466382  48.1035326  46.3285882  77.5925209  48.0344500  47.3155332
  83.0867805  36.7303779  58.9661959  84.0385228  36.8301876  58.9874183
  82.9171255  35.9382047  59.4760044  81.1082184  33.8159362  59.1521360
  80.5132117  34.0964375  58.4567849  80.8231881  34.3053263  59.9238101
  80.2389675  47.7682289  47.9123993  81.1720348  47.7027851  48.1156868
  80.1512888  48.6038556  47.4538525  82.8677692  47.0848159  44.8727940
  82.7891323  46.7508023  45.7663698  83.6887358  47.5769927  44.8719413
  85.5655883  39.9509899  58.0804259  85.5332203  39.0125899  58.2663943
  86.1756506  40.0293935  57.3470084  77.4039214  38.8205951  44.1231463
  78.3498318  38.6912160  44.1919881  77.0253459  38.0820613  44.6000891
  85.7150371  36.7420942  58.1262542  85.1989420  35.9579399  57.9392471
  86.5990320  36.4139659  58.2909061  83.3761098  30.4861958  54.0858355
  83.1785919  30.1777046  54.9701687  83.9860804  31.2123596  54.2156285
  91.3832433  41.0125905  57.2210296  92.1135821  40.7511193  57.7817999
  90.7739378  40.2754627  57.2612364  89.4647730  39.1533768  57.8184747
  88.7380893  39.0189733  57.2101238  89.0495017  39.4610597  58.6241465
  77.2877906  42.8723698  65.5832120  78.2080916  43.0502297  65.7772166
  77.2527489  41.9279743  65.4311819  75.5882131  36.7455928  44.0586348
  74.6813586  36.4489041  44.1349062  75.8658112  36.4485746  43.1920634
  66.5060071  38.0662291  54.5085394  66.1862856  37.2127599  54.2159768
  65.9593499  38.2810869  55.2643362  70.2839979  40.7824732  58.2254901
  70.5025989  41.7141840  58.2442935  70.6965753  40.4232707  59.0109705
  77.2044197  31.2892818  50.2130589  76.3944925  30.9439903  50.5885835
  77.8928613  30.9800361  50.8018201  79.1334745  30.3670864  51.8354886
  79.6865783  30.7866318  52.4944909  79.3704831  29.4406613  51.8777842
  75.1567844  36.3557938  67.6157650  75.0564571  37.3052295  67.5469741
  74.9389386  36.0276177  66.7433720  74.3580915  33.6042863  44.1998327
  75.2200079  33.9297761  44.4594145  74.5431260  32.8174359  43.6871393
  66.3748331  41.6865203  56.4778516  65.6811803  41.2719156  55.9648470
  67.1221322  41.7285739  55.8811935  82.5113552  32.4771390  51.3433550
  81.9312221  33.1356194  50.9611603  82.2449485  31.6548734  50.9320968
  80.9617118  31.8776447  53.5454871  81.4616897  31.9892982  52.7369189
  81.6052726  31.5737500  54.1855679  75.0199114  39.7855077  66.4322712
  74.5366196  40.5855437  66.6386601  75.1060053  39.7963022  65.4790156
  68.2885074  41.6183457  54.3544531  68.2655762  41.7171144  53.4026414
  68.5985710  42.4648607  54.6761697  70.9472452  43.6759612  58.4691145
  71.9015705  43.6443554  58.4021077  70.7484975  43.2150235  59.2841371
  71.5371834  42.2460728  61.0361943  72.3564723  42.7404806  61.0596780
  71.8108641  41.3292696  61.0079511  81.2938430  34.6371480  50.3989899
  80.4064285  34.9221131  50.1810093  81.7092419  34.4765243  49.5517175
  84.6452966  34.6618001  54.1144238  85.4213356  35.1514453  54.3868855
  83.9201100  35.0876055  54.5716107  87.0825525  35.3745620  55.1718178
  87.6770015  35.1341356  54.4611487  87.1552108  34.6552751  55.7991715
  69.3022680  49.2179231  55.4861343  69.1677148  48.4579632  54.9199341
  68.8854743  49.9420131  55.0190132  80.4381643  44.4016155  44.4937919
  81.1417494  44.6066157  45.1095574  79.7144292  44.9692917  44.7587002
  81.2679454  40.1526016  50.6140189  81.2114655  40.6094567  49.7747821
  81.8207796  39.3916700  50.4363031  85.0784260  35.9415748  51.4390308
  84.8221194  35.5412383  52.2698516  84.4537128  36.6559542  51.3140447
  89.3896597  38.6811821  53.9461600  88.8296155  38.7505010  54.7193162
  88.7840101  38.5052806  53.2261096  72.4591806  50.1148548  55.6979786
  72.3424190  51.0593981  55.5958476  71.6384253  49.8122110  56.0865585
  82.3468341  44.8398684  46.5436379  83.1813945  44.4079882  46.3613853
  82.1852684  44.6680697  47.4713273  82.0014233  41.3430797  47.9092718
  81.9463037  41.1775069  46.9681162  81.3760288  42.0506830  48.0654908
  66.7906748  36.5798861  61.7354140  67.4365612  36.0697815  62.2241365
  66.5823899  37.3167543  62.3097565  75.3110358  30.8438906  47.4878036
  75.2989028  31.7880746  47.6446307  76.2033780  30.6609052  47.1937497
  73.4846320  50.7676810  58.9135714  74.3873567  50.8000420  59.2302209
  73.2583690  49.8377261  58.9282050  75.2399922  49.5207797  55.5745793
  74.2895553  49.5209658  55.4610165  75.5432409  48.7740531  55.0581828
  79.1262478  27.4381683  51.7423973  78.3594874  26.8840169  51.8880655
  79.5373183  27.5103552  52.6038125  71.1304239  33.7266479  65.8329154
  71.9935701  33.3703283  66.0432479  70.5569650  33.3880373  66.5204559
  83.6429138  57.1631239  52.5649971  83.0794003  57.0721176  51.7966259
  83.5281533  56.3431144  53.0452463  81.1893570  58.6582431  55.4034191
  81.9814862  58.3173256  54.9880491  81.4290220  58.7677406  56.3236345
  83.1484324  57.9191344  48.2751570  83.9215200  57.3720331  48.1364446
  83.5009723  58.7835594  48.4866032  85.4850602  54.0784010  45.9070020
  85.7376122  53.5565532  45.1453483  84.5475161  53.9150156  46.0096704
  90.7003962  58.5192639  48.4133420  90.0649795  58.5927266  49.1254325
  90.3701368  59.1086238  47.7352499  95.9302312  53.0195022  54.6177742
  96.6627483  52.4494239  54.8515571  95.1741667  52.6316622  55.0584247
  85.2046890  55.9812116  48.1094395  85.0883148  55.3057020  48.7775479
  85.3149150  55.4944490  47.2926548  93.4527732  46.7316596  59.0772350
  93.1211057  47.6012007  58.8533565  92.8573345  46.4152880  59.7566381
  87.1883918  50.4712163  46.8102433  87.3558321  51.3392400  47.1772904
  86.9981087  50.6339445  45.8863722  93.3456395  51.4511682  56.1565701
  92.4373273  51.3827091  55.8624461  93.2943991  51.9283627  56.9847526
  87.1673139  52.9269821  47.7949100  87.0472764  53.3726871  48.6334580
  86.4725727  53.2755138  47.2362638  80.7580544  55.0276212  55.3448757
  80.8872925  55.2810691  56.2588168  80.0777995  55.6203920  55.0253412
  84.9280031  65.6973462  51.4439231  84.8504061  66.6481287  51.5227711
  84.3241675  65.3519335  52.1014157  95.2118042  49.6528121  57.9343574
  94.5692422  49.9460654  57.2883369  94.7072970  49.5381041  58.7396771
  92.8658205  53.3991294  48.6229434  93.7776061  53.6318681  48.4477131
  92.3567852  53.9828338  48.0604512  90.6529488  50.4192897  61.2905457
  90.4090420  51.1734957  60.7539733  90.9289419  50.7978244  62.1252704
  90.2094180  49.5749330  56.8719295  89.3478659  49.8730583  57.1636032
  90.2356615  49.7919729  55.9400327  85.9624635  54.2414673  50.0882665
  86.6648679  54.6935716  50.5556592  85.6305264  53.5998492  50.7162559
  79.7049969  52.4998225  55.3899799  78.9149023  52.7555754  54.9139910
  80.1961217  53.3146563  55.4951840  81.6564715  52.8642805  52.3483276
  80.8595878  52.9761499  52.8666771  81.4290307  53.2029457  51.4824166
  77.9887672  52.7528716  57.8214790  78.2395711  53.6375726  58.0872366
  78.5247221  52.5733317  57.0489882 101.8119772  56.1842213  54.4890051
 101.0583480  55.6149611  54.3334056 101.9467313  56.1504878  55.4360686
  83.6885740  47.1347195  66.8259126  83.2952685  46.5813394  67.5006770
  84.5051880  47.4457774  67.2165643  80.6547798  58.5731053  50.7372696
  81.1672318  59.3674304  50.8878260  81.3070510  57.8757344  50.6706297
  82.4642682  61.6896810  52.8195449  82.6409311  62.6114774  52.6316433
  83.2599516  61.3755229  53.2489829  90.5510864  44.5786177  58.6943664
  90.2075133  45.4687819  58.6182775  90.9189826  44.3887835  57.8313249
  78.6196714  56.9019708  51.5132266  79.4571936  57.3116716  51.2965974
  78.7974982  55.9619150  51.4832460  90.5161146  54.5694788  47.2016099
  90.0007770  55.3399393  47.4404487  90.2438455  53.8959925  47.8249161
  88.1008257  49.4144489  52.2601338  87.2449854  49.0251340  52.0806976
  88.5135209  49.4936450  51.4001123  89.6307404  46.9490832  56.6592897
  89.1272200  46.9120968  55.8460703  89.9238011  47.8583575  56.7189554
  85.8750290  47.0329562  55.6659079  86.7403287  46.8372371  55.3064969
  85.9427799  46.8039914  56.5928436  95.4895421  57.3227143  49.1369273
  94.7124863  56.9838302  48.6924435  96.1686902  57.3279766  48.4624238
  90.3047450  52.4421880  49.0275880  89.9997585  52.7568030  49.8786024
  91.2577892  52.5203300  49.0703213  83.4812609  49.2631770  53.0375446
  84.0556361  49.0406952  52.3048639  84.0683591  49.3320465  53.7904047
  83.8082196  51.2936231  47.0571331  82.9719508  51.6310918  47.3780606
  83.6686966  51.1585211  46.1198468  85.7835277  46.1373019  51.7650515
  85.1299689  45.8222036  51.1407130  85.7415751  45.5148759  52.4910338
  86.8946482  56.4192314  43.6803807  85.9873543  56.1881567  43.8794956
  87.3917514  55.6229933  43.8677789  89.8014560  65.1289821  46.6000494
  89.1276259  65.4321518  47.2085451  90.1880382  65.9318902  46.2505951
  88.0734715  56.5204909  48.2027797  87.1645934  56.2363942  48.3000267
  88.1029799  56.9403987  47.3431104  92.2486902  51.0603484  53.2019632
  91.5109659  50.5480871  53.5329875  92.5013676  50.6203866  52.3902909
  92.3498529  43.8379736  53.7961402  92.6557406  42.9777100  53.5087317
  93.0751134  44.4297357  53.5960396  78.6422885  54.2410423  52.1843000
  78.4447285  53.6479784  51.4594066  78.0869549  53.9362633  52.9018938
  87.7710803  58.0613653  45.5415876  87.3330233  57.3449511  45.0821513
  88.5121244  58.2889767  44.9800967  84.5611969  52.7510589  52.0627972
  83.7479835  53.0504760  52.4693164  85.0570963  52.3566278  52.7802454
  95.8883918  56.3370850  51.5992195  95.7501816  56.5272446  50.6713384
  95.5320136  57.0990232  52.0560246  95.9153297  58.4047377  56.6103466
  96.3489804  58.3122666  57.4586520  96.6284878  58.3804877  55.9723482
  81.1369111  53.7674457  49.8683952  80.2066699  53.7058912  50.0853914
  81.2326583  53.2450410  49.0720593  81.0554660  50.2929270  52.4562193
  81.3161477  51.2074603  52.3471354  81.8771833  49.8253712  52.6058806
  96.7768847  58.4471077  59.1436352  96.9704737  59.3516888  59.3895626
  96.6769465  57.9878496  59.9774937  88.4305158  48.3328968  61.6426679
  87.7833073  49.0318918  61.5491155  89.2006173  48.7665112  62.0102927
  88.0005776  65.2969494  48.8147573  88.1757531  64.8257537  49.6293195
  87.3138564  65.9235260  49.0428833  91.8922030  56.9198034  45.1347934
  91.2751201  56.1944862  45.0380986  91.4238519  57.6807394  44.7915008
  93.5476162  61.6296943  62.7953714  93.4888708  60.9456163  62.1284297
  93.9495680  62.3715933  62.3434340  83.6820576  51.1383459  44.2569238
  82.8050043  51.0172259  43.8931485  84.1578329  50.3469537  44.0048127
  75.2022716  55.9260618  54.3510745  75.8893756  55.6122348  53.7631760
  75.0470845  56.8301983  54.0777996  80.0057439  50.8150815  58.7795769
  79.9215627  50.2076484  58.0446179  79.1840145  51.3059833  58.7805265
  90.1781153  49.3004378  54.1465964  90.6749852  48.5474341  53.8267034
  89.4068134  49.3368695  53.5809173  98.0310910  55.0044744  55.7884255
  98.0200786  55.8869459  55.4178188  97.1628289  54.6516295  55.5938792
  86.7616121  51.4421761  53.8737648  86.3913909  50.8892802  54.5618554
  87.2575214  50.8379895  53.3212648  94.6483485  53.8993385  52.2554421
  95.1143937  54.7321376  52.1814724  95.0990985  53.4338366  52.9599680
  92.7159716  60.2437206  49.2540573  92.9919560  60.1293801  50.1634447
  91.8464214  59.8454691  49.2152746  92.6200147  46.2673972  56.2945323
  91.7063227  46.4978199  56.4627530  93.0493249  46.3512416  57.1459355
  74.7790693  54.0061212  56.6228212  74.8174792  53.4724802  57.4165330
  74.2730985  53.4796417  56.0039189  92.0327836  61.3311860  65.3717524
  92.5767740  61.9441818  64.8772479  91.4514681  61.8891438  65.8884537
  78.4099270  52.7325314  49.6982144  78.7052711  51.8235992  49.6449197
  77.5087306  52.7113053  49.3763146  81.9393517  50.8081310  55.6809692
  81.2180103  51.4217278  55.5417165  82.7286773  51.3439075  55.6026338
  80.1387112  50.4139411  49.8221469  79.8099818  49.5336790  49.6396575
  80.4926482  50.3587080  50.7097858  83.2528935  50.7012381  50.1896946
  83.5925007  51.2298302  49.4675555  83.7001055  51.0392787  50.9655513
  86.5988848  46.1698744  58.0927337  87.4214917  45.6959223  57.9706228
  86.8426911  46.9489228  58.5926024  85.2397082  49.1987003  48.3890239
  85.9605445  49.5768256  47.8853956  84.6162386  49.9175880  48.4925217
  89.3828205  49.9032152  49.3248572  89.5991819  50.7856790  49.0237400
  88.9022272  49.5118365  48.5954213  85.9823809  49.8520413  55.9500206
  85.9685378  48.9561506  55.6132504  86.6996237  49.8591077  56.5838492
  85.3860705  48.7334793  51.2187776  85.5076616  47.8051439  51.4178663
  85.0962748  48.7473479  50.3066091  88.2551896  46.4189704  54.3554496
  88.2773592  46.4829037  53.4006475  88.6719955  45.5794212  54.5495002
  98.6335520  56.1544963  52.3933718  99.0766666  55.4052288  51.9952841
  97.7562030  56.1455100  52.0107450  93.7671301  62.7075305  47.8740317
  94.4622206  63.3281997  48.0927631  94.1094451  61.8570656  48.1492695
  95.6662724  60.1575010  49.4027648  96.1914048  60.4962283  48.6776968
  95.5785077  59.2222026  49.2190782  79.8295724  62.4158534  53.7647529
  80.6553744  62.1162306  53.3846172  79.4789776  61.6466157  54.2137317
  78.0304329  60.3344861  54.7236462  77.1936237  59.9067035  54.5420464
  78.0027975  60.5277304  55.6607254  95.3556630  60.7907914  64.7078845
  94.5652174  60.7732053  64.1683345  95.1189985  61.3296208  65.4627882
  95.4754505  57.6400380  62.0211574  95.5252510  57.4750388  62.9627097
  95.3668429  56.7727639  61.6309455  84.3590764  60.3188926  49.3103663
  84.5078884  61.0024390  48.6570336  85.1657208  60.2994016  49.8253119
  96.9772702  60.0597322  62.2653596  96.6857511  60.4227302  63.1017057
  96.3644834  59.3464330  62.0866928  98.1768385  57.6250202  54.7856166
  99.0115276  58.0640006  54.9493726  98.3127513  57.1488855  53.9664412
  95.2259891  55.1829936  60.7333654  95.7014012  55.3757583  59.9252505
  94.3025456  55.2389122  60.4877037  82.1143397  56.3454104  50.3164732
  81.8689439  55.4416434  50.5144942  82.2839312  56.3471254  49.3744210
  89.8040107  47.2177780  59.6989487  90.3222051  47.9538807  59.3735976
  89.4495240  47.5241773  60.5336247  81.3839045  52.0782461  47.8150893
  80.6908290  52.1526816  47.1590929  81.1390797  51.3142805  48.3372410
  90.0552701  43.6378063  55.2190384  90.3354455  42.9701252  55.8450811
  90.8403308  43.8307158  54.7065048  87.8586170  62.8137056  46.7815410
  87.2860137  63.4327244  46.3285882  88.4318963  63.3636418  47.3155332
  93.9261560  52.0595696  58.9661959  94.8778982  52.1593794  58.9874183
  93.7565010  51.2673965  59.4760044  91.9475939  49.1451280  59.1521360
  91.3525871  49.4256292  58.4567849  91.6625636  49.6345181  59.9238101
  91.0783429  63.0974207  47.9123993  92.0114103  63.0319768  48.1156868
  90.9906642  63.9330473  47.4538525  93.7071446  62.4140077  44.8727940
  93.6285078  62.0799940  45.7663698  94.5281113  62.9061845  44.8719413
  96.4049637  55.2801816  58.0804259  96.3725957  54.3417817  58.2663943
  97.0150261  55.3585853  57.3470084  88.2432968  54.1497869  44.1231463
  89.1892073  54.0204077  44.1919881  87.8647213  53.4112531  44.6000891
  96.5544126  52.0712860  58.1262542  96.0383174  51.2871316  57.9392471
  97.4384074  51.7431576  58.2909061  94.2154853  45.8153875  54.0858355
  94.0179674  45.5068963  54.9701687  94.8254558  46.5415514  54.2156285
 102.2226187  56.3417823  57.2210296 102.9529576  56.0803111  57.7817999
 101.6133133  55.6046545  57.2612364 100.3041484  54.4825686  57.8184747
  99.5774648  54.3481651  57.2101238  99.8888771  54.7902514  58.6241465
  86.4275885  52.0747846  44.0586348  85.5207341  51.7780958  44.1349062
  86.7051866  51.7777664  43.1920634  77.3453826  53.3954209  54.5085394
  77.0256610  52.5419517  54.2159768  76.7987254  53.6102787  55.2643362
  88.0437951  46.6184735  50.2130589  87.2338679  46.2731820  50.5885835
  88.7322368  46.3092279  50.8018201  89.9728499  45.6962782  51.8354886
  90.5259538  46.1158235  52.4944909  90.2098586  44.7698530  51.8777842
  85.1974670  48.9334781  44.1998327  86.0593834  49.2589679  44.4594145
  85.3825014  48.1466277  43.6871393  77.2142086  57.0157120  56.4778516
  76.5205557  56.6011073  55.9648470  77.9615077  57.0577657  55.8811935
  93.3507306  47.8063307  51.3433550  92.7705975  48.4648111  50.9611603
  93.0843239  46.9840652  50.9320968  91.8010873  47.2068365  53.5454871
  92.3010651  47.3184899  52.7369189  92.4446481  46.9029418  54.1855679
  79.1278828  56.9475374  54.3544531  79.1049516  57.0463062  53.4026414
  79.4379465  57.7940525  54.6761697  92.1332184  49.9663398  50.3989899
  91.2458039  50.2513048  50.1810093  92.5486173  49.8057161  49.5517175
  95.4846721  49.9909919  54.1144238  96.2607111  50.4806371  54.3868855
  94.7594855  50.4167973  54.5716107  97.9219279  50.7037538  55.1718178
  98.5163770  50.4633274  54.4611487  97.9945863  49.9844668  55.7991715
  91.2775398  59.7308072  44.4937919  91.9811248  59.9358075  45.1095574
  90.5538047  60.2984834  44.7587002  95.9178014  51.2707665  51.4390308
  95.6614948  50.8704301  52.2698516  95.2930882  51.9851459  51.3140447
 100.2290352  54.0103739  53.9461600  99.6689910  54.0796928  54.7193162
  99.6233855  53.8344723  53.2261096  93.1862095  60.1690601  46.5436379
  94.0207699  59.7371800  46.3613853  93.0246438  59.9972615  47.4713273
  92.8407987  56.6722715  47.9092718  92.7856791  56.5066986  46.9681162
  92.2154043  57.3798748  48.0654908  86.1504113  46.1730824  47.4878036
  86.1382783  47.1172664  47.6446307  87.0427535  45.9900969  47.1937497
  89.9656232  42.7673600  51.7423973  89.1988628  42.2132087  51.8880655
  90.3766937  42.8395469  52.6038125  81.9697993  49.0558396  65.8329154
  82.8329455  48.6995201  66.0432479  81.3963404  48.7172291  66.5204559
 101.8146370  70.6860253  56.6391555 102.4524780  70.5667000  55.9354895
 101.6967213  71.6341097  56.6979507  98.6236077  70.6387681  56.5753080
  98.2854588  70.5228745  55.6873615  99.4925845  70.2378846  56.5554086
  94.4822892  72.4923157  52.5649971  93.9187757  72.4013094  51.7966259
  94.3675287  71.6723062  53.0452463  99.1055860  71.7922532  62.5339286
  99.0944500  71.3975331  61.6619789  99.2676499  71.0588605  63.1273057
  92.0287324  73.9874349  55.4034191  92.8208616  73.6465173  54.9880491
  92.2683974  74.0969324  56.3236345 100.0622451  76.1594125  47.8764436
  99.4110431  76.7448205  47.4898450 100.8566814  76.6900320  47.9359473
  93.9878078  73.2483262  48.2751570  94.7608954  72.7012249  48.1364446
  94.3403477  74.1127511  48.4866032  95.8263121  74.5759644  61.4818470
  95.5352987  75.4805275  61.3665136  96.4620105  74.6176172  62.1962539
  96.7519328  71.9536493  58.0719829  97.3482900  71.7292515  57.3576792
  96.8094299  71.2121238  58.6745277  96.3244356  69.4075928  45.9070020
  96.5769877  68.8857449  45.1453483  95.3868915  69.2442074  46.0096704
 101.3687639  68.4111706  53.7144763 102.1550728  67.9931130  53.3635180
 101.6326343  69.3157799  53.8826412 101.5397716  73.8484557  48.4133420
 100.9043549  73.9219183  49.1254325 101.2095123  74.4378156  47.7352499
 106.7696066  68.3486940  54.6177742 107.5021238  67.7786156  54.8515571
 106.0135422  67.9608540  55.0584247  96.0440645  71.3104034  48.1094395
  95.9276903  70.6348937  48.7775479  96.1542905  70.8236408  47.2926548
  98.3872186  70.7714181  51.8141084  98.0230393  70.2444802  52.5254006
  99.2439302  70.3812650  51.6407570 104.2921486  62.0608514  59.0772350
 103.9604811  62.9303925  58.8533565 103.6967100  61.7444798  59.7566381
  98.0277673  65.8004081  46.8102433  98.1952075  66.6684317  47.1772904
  97.8374842  65.9631363  45.8863722 100.7853006  74.2621060  58.4768263
 100.4853729  75.1646099  58.3684070 100.4404065  73.9953243  59.3289416
  94.2365487  70.7134857  54.5104968  93.3115984  70.5811071  54.7182659
  94.4849901  71.4929076  55.0074910 104.1850150  66.7803600  56.1565701
 103.2767027  66.7119008  55.8624461 104.1337745  67.2575545  56.9847526
  98.0066894  68.2561738  47.7949100  97.8866519  68.7018789  48.6334580
  97.3119482  68.6047056  47.2362638  91.5974298  70.3568130  55.3448757
  91.7266680  70.6102609  56.2588168  90.9171750  70.9495838  55.0253412
  95.7673786  81.0265380  51.4439231  95.6897815  81.9773205  51.5227711
  95.1635429  80.6811253  52.1014157  98.2591015  68.1993246  64.1000598
  97.4824350  68.7587166  64.0903462  98.8981579  68.6850028  64.6215468
 106.0511796  64.9820038  57.9343574 105.4086176  65.2752571  57.2883369
 105.5466725  64.8672959  58.7396771 103.7051960  68.7283212  48.6229434
 104.6169816  68.9610598  48.4477131 103.1961607  69.3120256  48.0604512
  96.5137388  71.0078699  63.6618565  97.2552072  71.5463743  63.3853388
  95.8074373  71.6344988  63.8190117 101.9892727  73.1507839  62.2590726
 102.3976083  72.7090250  61.5145359 101.2669989  72.5760467  62.5124919
  98.3423797  68.0880446  59.6324283  99.1884993  68.5119860  59.7758932
  98.2822435  67.4314070  60.3262846 102.3121542  73.7109030  56.0143015
 101.6830404  73.8754744  55.3119083 101.9247204  74.1250640  56.7853979
 106.1910774  74.6463468  53.3687379 105.5061812  75.0262369  52.8184412
 106.2754623  75.2558794  54.1019327 101.4923243  65.7484814  61.2905457
 101.2484175  66.5026875  60.7539733 101.7683173  66.1270162  62.1252704
 103.4461706  72.2923427  59.9682722 103.6578601  72.9355187  59.2917104
 103.3991454  71.4585743  59.5004653 101.0487935  64.9041247  56.8719295
 100.1872414  65.2022501  57.1636032 101.0750369  65.1211646  55.9400327
  97.8649504  73.4483438  53.2793100  98.3287849  73.7271141  52.4897723
  97.6006302  72.5466883  53.0966191  94.7573585  72.9954920  56.2172864
  95.3274942  73.4242188  55.5790348  95.3481697  72.7137504  56.9157049
  96.8018390  69.5706590  50.0882665  97.5042433  70.0227634  50.5556592
  96.4699018  68.9290409  50.7162559  95.2498752  68.1618347  64.4633875
  94.6197412  68.8434628  64.6969272  95.1434839  68.0501429  63.5187013
 104.5607533  75.1695382  58.1405080 105.3824977  74.7675570  57.8587761
 104.5569936  75.0663616  59.0921196  92.4958469  68.1934722  52.3483276
  91.6989633  68.3053417  52.8666771  92.2684062  68.5321375  51.4824166
  98.3264137  74.7179426  60.2965790  98.3908569  75.1799833  61.1323962
  97.6175061  74.0876790  60.4248100  98.0412155  76.3847533  50.1644771
  97.9057829  77.2299069  50.5929618  98.5821967  76.5866811  49.4010704
  94.5279494  62.4639113  66.8259126  94.1346440  61.9105311  67.5006770
  95.3445635  62.7749691  67.2165643  91.4941552  73.9022971  50.7372696
  92.0066073  74.6966221  50.8878260  92.1464265  73.2049262  50.6706297
  93.3036437  77.0188727  52.8195449  93.4803065  77.9406692  52.6316433
  94.0993270  76.7047147  53.2489829  97.4447455  63.8796992  64.4179382
  98.1857169  64.4804145  64.3383845  97.6765378  63.1374630  63.8597425
  92.5888793  69.0653359  62.6957612  92.4742308  68.1638616  62.9964711
  91.7333311  69.3117056  62.3442429  99.6680631  77.0071100  64.2945113
  99.2244485  76.2207478  63.9766017 100.3297845  77.1950250  63.6289003
  94.4267752  78.5366901  58.8205791  94.9775177  78.4083965  58.0482785
  93.5879228  78.8361790  58.4700684 101.7661869  77.2873899  62.3226514
 101.7480344  78.1082781  61.8306783 102.6881789  77.1627975  62.5476655
  98.2234923  74.8018029  63.1650022  98.7563260  74.0406317  62.9349330
  97.6949004  74.5091681  63.9074177 101.3904618  59.9078095  58.6943664
 101.0468888  60.7979737  58.6182775 101.7583581  59.7179753  57.8313249
  89.4590469  72.2311625  51.5132266  90.2965691  72.6408634  51.2965974
  89.6368736  71.2911068  51.4832460 101.3554901  69.8986706  47.2016099
 100.8401524  70.6691311  47.4404487 101.0832209  69.2251842  47.8249161
  98.9402012  64.7436407  52.2601338  98.0843608  64.3543257  52.0806976
  99.3528964  64.8228368  51.4001123 100.4701159  62.2782750  56.6592897
  99.9665954  62.2412885  55.8460703 100.7631765  63.1875493  56.7189554
  96.7144044  62.3621480  55.6659079  97.5797041  62.1664288  55.3064969
  96.7821553  62.1331832  56.5928436 106.3289175  72.6519061  49.1369273
 105.5518618  72.3130220  48.6924435 107.0080656  72.6571684  48.4624238
 101.1441204  67.7713798  49.0275880 100.8391340  68.0859947  49.8786024
 102.0971646  67.8495218  49.0703213  99.5887636  73.9304021  50.6768834
  99.0608997  73.1956781  50.3642072  99.0875139  74.7078698  50.4308803
 104.5680482  72.1253042  55.7935881 103.9104156  72.8152303  55.8816009
 105.3720881  72.5149474  56.1369867  94.3206364  64.5923688  53.0375446
  94.8950115  64.3698869  52.3048639  94.9077346  64.6612382  53.7904047
 103.3785941  70.4797415  53.8439822 103.8917822  71.1127406  54.3461532
 104.0287165  69.8798610  53.4783182  94.6475951  66.6228149  47.0571331
  93.8113263  66.9602835  47.3780606  94.5080720  66.4877129  46.1198468
  96.6229031  61.4664937  51.7650515  95.9693444  61.1513954  51.1407130
  96.5809505  60.8440677  52.4910338  97.7340236  71.7484232  43.6803807
  96.8267298  71.5173485  43.8794956  98.2311268  70.9521851  43.8677789
 100.6408315  80.4581739  46.6000494  99.9670014  80.7613436  47.2085451
 101.0274137  81.2610819  46.2505951  99.8566772  67.9546870  56.0898163
  98.9389333  68.1761817  55.9319851 100.2726915  68.0293181  55.2309870
 100.6401819  69.3538286  51.2200843 101.3873638  69.8659683  50.9107965
 100.9093409  69.0322339  52.0805237  98.9128470  71.8496827  48.2027797
  98.0039689  71.5655859  48.3000267  98.9423553  72.2695905  47.3431104
 104.1447737  75.4603416  51.9718965 103.6910064  74.6194326  52.0284156
 103.5141704  76.0964814  52.3093745 103.0880657  66.3895402  53.2019632
 102.3503413  65.8772788  53.5329875 103.3407430  65.9495784  52.3902909
 102.5880676  77.2979913  52.9068783 102.8803651  77.8584970  52.1881149
 103.0979297  77.5908474  53.6621942 103.1892284  59.1671654  53.7961402
 103.4951161  58.3069018  53.5087317 103.9144889  59.7589274  53.5960396
  89.4816640  69.5702341  52.1843000  89.2841040  68.9771701  51.4594066
  88.9263304  69.2654551  52.9018938  97.4613364  69.4625447  54.3037593
  97.5161973  68.5099284  54.2280069  96.6504566  69.6184886  54.7878891
  98.6104557  73.3905570  45.5415876  98.1723987  72.6741429  45.0821513
  99.3514998  73.6181685  44.9800967  95.4005723  68.0802507  52.0627972
  94.5873589  68.3796677  52.4693164  95.8964718  67.6858196  52.7802454
  97.5514301  78.0760264  53.9962236  97.5090480  78.3021110  53.0670768
  98.4677000  77.8423638  54.1448038 100.9979935  68.5444331  60.8942866
 101.3529323  68.7715805  61.7537331 101.6452066  68.8762708  60.2720121
 106.7277672  71.6662767  51.5992195 106.5895571  71.8564363  50.6713384
 106.3713891  72.4282150  52.0560246  94.8919798  65.6520862  57.6789207
  95.5319178  65.5109622  56.9812170  94.0597329  65.3655376  57.3027809
 106.7547052  73.7339294  56.6103466 107.1883558  73.6414583  57.4586520
 107.4678632  73.7096795  55.9723482  95.6680102  74.9523293  53.7924199
  96.4620701  74.4573613  53.5906774  94.9571795  74.4241156  53.4291905
 100.4874947  77.3341388  58.1436567 100.5411969  77.9032325  58.9114283
  99.6189728  77.5043273  57.7790604  91.9762866  69.0966375  49.8683952
  91.0460454  69.0350830  50.0853914  92.0720338  68.5742327  49.0720593
  91.8948415  65.6221187  52.4562193  92.1555232  66.5366521  52.3471354
  92.7165587  65.1545630  52.6058806 107.6162601  73.7762995  59.1436352
 107.8098491  74.6808805  59.3895626 107.5163219  73.3170414  59.9774937
  99.2698912  63.6620886  61.6426679  98.6226827  64.3610835  61.5491155
 100.0399927  64.0957029  62.0102927 102.6777710  73.9269738  64.7177232
 102.5263216  73.6980289  63.8007316 102.6682389  74.8840339  64.7308577
  99.4463046  71.5001650  59.7023499 100.3755106  71.6512810  59.5292466
  99.0254076  71.5885671  58.8472145  98.2451378  75.5252315  57.4722036
  98.1062464  75.1571099  58.3447974  97.4565974  76.0399954  57.3005994
  98.8399530  80.6261411  48.8147573  99.0151286  80.1549455  49.6293195
  98.1532318  81.2527178  49.0428833  99.7956593  74.9033918  54.8610874
  99.4606426  74.8634688  55.7568524  99.2960539  74.2378633  54.3881284
  93.7700837  70.3101548  60.3863455  93.6320635  69.5781786  60.9874994
  94.6805761  70.2210448  60.1047643 102.7315785  72.2489952  45.1347934
 102.1144956  71.5236780  45.0380986 102.2632273  73.0099312  44.7915008
  96.3983138  70.0221507  59.8747135  97.1082756  69.3814699  59.8333753
  96.3552446  70.2734402  60.7973316 104.3869917  76.9588860  62.7953714
 104.3282463  76.2748080  62.1284297 104.7889435  77.7007850  62.3434340
  95.1112072  67.0086725  61.6942774  94.5749429  66.5577463  62.3464371
  94.5228780  67.1432634  60.9513239  93.4060615  83.7750774  55.5887433
  93.6457214  84.4069298  56.2666451  92.5629812  83.4238814  55.8752792
  94.5214331  66.4675376  44.2569238  93.6443797  66.3464177  43.8931485
  94.9972084  65.6761454  44.0048127 104.3887324  74.9228444  61.0267694
 103.5014103  74.5854366  61.1494093 104.9585875  74.1911475  61.2636459
  97.9188477  79.5829897  57.9928937  97.8458649  80.3884868  58.5048241
  97.4765870  79.7821862  57.1676958  97.7078257  78.8201667  51.5031758
  96.9245779  79.3623347  51.5969983  98.4071002  79.3375646  51.9026000
 101.0174907  64.6296296  54.1465964 101.5143607  63.8766258  53.8267034
 100.2461889  64.6660613  53.5809173 108.8704664  70.3336662  55.7884255
 108.8594541  71.2161377  55.4178188 108.0022044  69.9808212  55.5938792
 100.3787161  79.4816731  60.1487096 101.0915133  80.1164195  60.0762997
  99.8877189  79.5780597  59.3327097 102.1004688  73.3867983  51.7204387
 101.1660966  73.5069446  51.5509092 102.2781356  72.4840450  51.4564397
  97.6009876  66.7713679  53.8737648  97.2307663  66.2184719  54.5618554
  98.0968968  66.1671812  53.3212648 105.4877239  69.2285303  52.2554421
 105.9537691  70.0613294  52.1814724 105.9384740  68.7630284  52.9599680
  95.4299074  77.2311174  60.9692666  96.1308534  77.8647657  61.1222061
  94.9594189  77.5725906  60.2088306 103.5553470  75.5729124  49.2540573
 103.8313314  75.4585718  50.1634447 102.6857969  75.1746609  49.2152746
 103.4593902  61.5965890  56.2945323 102.5456982  61.8270116  56.4627530
 103.8887003  61.6804334  57.1459355 103.2300360  69.7855781  58.7945217
 102.5771811  70.0331689  58.1397669 103.6080740  68.9719920  58.4607694
 100.1907534  79.8215475  52.8973387 100.3729929  79.0037131  53.3601139
 101.0140520  80.0383167  52.4598277 100.5249700  78.7483660  50.1588435
 101.0537466  78.2376114  49.5458598 100.7877919  78.4326190  51.0233969
  99.2787933  70.5275593  65.2811254  98.6028570  70.4269722  65.9513629
 100.1015567  70.3714806  65.7447251  91.0266792  76.7647529  57.9023769
  91.6120229  76.0191217  58.0351673  90.8291631  77.0751486  58.7860433
  93.8805448  79.7998776  52.9186211  93.2115823  80.2844904  52.4350251
  93.7418317  80.0467997  53.8329590  98.0210716  81.8342520  59.5168870
  98.5729024  81.9974141  60.2817955  98.3616910  82.4246958  58.8448895
  92.4727482  66.2540802  63.7663789  93.0999521  65.8717880  64.3801313
  91.6155401  66.0355004  64.1319481 102.8721591  76.6603777  65.3717524
 103.4161494  77.2733736  64.8772479 102.2908435  77.2183356  65.8884537
  89.2493025  68.0617231  49.6982144  89.5446466  67.1527910  49.6449197
  88.3481060  68.0404971  49.3763146 101.1579103  79.7824496  56.5032552
 101.0330243  78.9814235  55.9943497 101.8158195  80.2770689  56.0146522
 103.2214012  77.5833516  58.1312102 102.2744347  77.4638867  58.0590429
 103.5696785  76.6956014  58.2138363  95.5813585  63.4727655  61.9550344
  96.1047987  63.7189951  62.7176653  95.3625918  64.3047689  61.5353481
  90.9780866  65.7431329  49.8221469  90.6493572  64.8628708  49.6396575
  91.3320237  65.6878998  50.7097858 100.2260445  77.3786232  54.3316454
 100.0785408  76.4502939  54.5124024 101.0513939  77.4006323  53.8473530
  94.0922689  66.0304299  50.1896946  94.4318762  66.5590220  49.4675555
  94.5394810  66.3684705  50.9655513 103.8294567  78.2014791  55.4181327
 104.7541114  77.9957652  55.2805778 103.6609870  77.9531192  56.3270669
  96.7866130  64.4141350  59.6400014  96.4462951  63.6149163  60.0420694
  96.0805137  64.7143060  59.0676848  97.4382602  61.4990662  58.0927337
  98.2608671  61.0251140  57.9706228  97.6820666  62.2781146  58.5926024
  96.0790837  64.5278920  48.3890239  96.7999199  64.9060173  47.8853956
  95.4556141  65.2467797  48.4925217 100.2221959  65.2324069  49.3248572
 100.4385574  66.1148707  49.0237400  99.7416027  64.8410283  48.5954213
  94.9621181  68.1909783  55.9019316  94.8165762  68.5050086  56.7943598
  94.4846384  68.8094683  55.3490215  96.8217564  65.1812331  55.9500206
  96.8079132  64.2853424  55.6132504  97.5389992  65.1882994  56.5838492
  98.6743694  65.6149671  57.9953333  98.4161472  66.5366742  57.9937664
  98.1428735  65.2180105  58.6853797 103.6189883  78.7200458  50.7743418
 103.7926761  78.1546880  50.0217271 104.1118774  79.5201353  50.5922908
  96.2254460  64.0626711  51.2187776  96.3470371  63.1343357  51.4178663
  95.9356502  64.0765397  50.3066091  99.0945650  61.7481621  54.3554496
  99.1167347  61.8120954  53.4006475  99.5113709  60.9086130  54.5495002
 109.4729274  71.4836881  52.3933718 109.9160420  70.7344206  51.9952841
 108.5955785  71.4747017  52.0107450 104.6065056  78.0367222  47.8740317
 105.3015960  78.6573915  48.0927631 104.9488206  77.1862574  48.1492695
 106.5056479  75.4866928  49.4027648 107.0307803  75.8254201  48.6776968
 106.4178831  74.5513943  49.2190782  98.1676528  79.4001002  61.5317524
  98.4763654  79.1550148  62.4040224  98.9652010  79.6047640  61.0436394
  98.1897140  81.5538911  53.7622901  97.7502130  81.0615290  54.4555757
  98.9405257  81.0111879  53.5214976  90.6689479  77.7450452  53.7647529
  91.4947498  77.4454224  53.3846172  90.3183531  76.9758075  54.2137317
  95.6371012  77.0976920  55.8345202  95.0151021  76.4347625  55.5347430
  96.3075879  77.1238052  55.1518850  95.7095539  65.5758708  65.4277708
  95.7583695  66.4520831  65.0455478  96.2518053  65.0336101  64.8549352
 106.1950385  76.1199832  64.7078845 105.4045929  76.1023970  64.1683345
 105.9583739  76.6588125  65.4627882 106.3148260  72.9692298  62.0211574
 106.3646265  72.8042305  62.9627097 106.2062183  72.1019557  61.6309455
  95.1984519  75.6480844  49.3103663  95.3472639  76.3316308  48.6570336
  96.0050962  75.6285934  49.8253119 103.6052022  68.9523226  63.3370881
 104.5061885  68.8129691  63.0454879 103.6799997  69.1177681  64.2769058
  97.9394828  66.3290081  62.1824067  97.0698137  66.6223647  61.9106656
  98.1754308  66.9130526  62.9031331 107.8166457  75.3889239  62.2653596
 107.5251265  75.7519220  63.1017057 107.2038588  74.6756248  62.0866928
 109.0162139  72.9542119  54.7856166 109.8509030  73.3931923  54.9493726
 109.1521268  72.4780772  53.9664412 106.0653645  70.5121854  60.7333654
 106.5407767  70.7049500  59.9252505 105.1419210  70.5681040  60.4877037
  92.9537152  71.6746021  50.3164732  92.7083194  70.7708351  50.5144942
  93.1233066  71.6763172  49.3744210 100.6433861  62.5469698  59.6989487
 101.1615805  63.2830725  59.3735976 100.2888994  62.8533691  60.5336247
  92.2232799  67.4074379  47.8150893  91.5302044  67.4818734  47.1590929
  91.9784551  66.6434722  48.3372410 100.8946456  58.9669980  55.2190384
 101.1748209  58.2993169  55.8450811 101.6797063  59.1599076  54.7065048
  98.6979924  78.1428974  46.7815410  98.1253891  78.7619161  46.3285882
  99.2712718  78.6928336  47.3155332 104.7655314  67.3887614  58.9661959
 105.7172737  67.4885712  58.9874183 104.5958764  66.5965883  59.4760044
 102.7869693  64.4743197  59.1521360 102.1919626  64.7548210  58.4567849
 102.5019390  64.9637098  59.9238101 101.9177184  78.4266124  47.9123993
 102.8507857  78.3611686  48.1156868 101.8300397  79.2622391  47.4538525
 104.5465201  77.7431995  44.8727940 104.4678832  77.4091858  45.7663698
 105.3674867  78.2353762  44.8719413 107.2443392  70.6093734  58.0804259
 107.2119712  69.6709735  58.2663943 107.8544015  70.6877771  57.3470084
  99.0826723  69.4789787  44.1231463 100.0285827  69.3495995  44.1919881
  98.7040968  68.7404449  44.6000891 107.3937880  67.4004777  58.1262542
 106.8776929  66.6163234  57.9392471 108.2777829  67.0723494  58.2909061
 105.0548607  61.1445793  54.0858355 104.8573428  60.8360881  54.9701687
 105.6648313  61.8707432  54.2156285  98.9665415  73.5307533  65.5832120
  99.8868425  73.7086132  65.7772166  98.9314998  72.5863578  65.4311819
  97.2669640  67.4039763  44.0586348  96.3601095  67.1072876  44.1349062
  97.5445621  67.1069581  43.1920634  88.1847580  68.7246127  54.5085394
  87.8650365  67.8711435  54.2159768  87.6381008  68.9394705  55.2643362
  98.8831706  61.9476653  50.2130589  98.0732434  61.6023738  50.5885835
  99.5716122  61.6384197  50.8018201 100.8122254  61.0254700  51.8354886
 101.3653292  61.4450153  52.4944909 101.0492340  60.0990448  51.8777842
  96.8355353  67.0141773  67.6157650  96.7352080  67.9636130  67.5469741
  96.6176895  66.6860012  66.7433720  96.0368424  64.2626698  44.1998327
  96.8987588  64.5881597  44.4594145  96.2218769  63.4758194  43.6871393
 104.1901061  63.1355225  51.3433550 103.6099730  63.7940029  50.9611603
 103.9236994  62.3132569  50.9320968 102.6404627  62.5360283  53.5454871
 103.1404406  62.6476817  52.7369189 103.2840235  62.2321335  54.1855679
  96.6986623  70.4438912  66.4322712  96.2153705  71.2439272  66.6386601
  96.7847562  70.4546857  65.4790156  89.9672583  72.2767292  54.3544531
  89.9443271  72.3754979  53.4026414  90.2773219  73.1232443  54.6761697
  92.6259961  74.3343447  58.4691145  93.5803214  74.3027389  58.4021077
  92.4272484  73.8734071  59.2841371  93.2159343  72.9044563  61.0361943
  94.0352232  73.3988642  61.0596780  93.4896150  71.9876531  61.0079511
 102.9725939  65.2955315  50.3989899 102.0851794  65.5804966  50.1810093
 103.3879928  65.1349079  49.5517175 106.3240475  65.3201836  54.1144238
 107.1000865  65.8098289  54.3868855 105.5988609  65.7459890  54.5716107
 108.7613034  66.0329455  55.1718178 109.3557524  65.7925191  54.4611487
 108.8339617  65.3136586  55.7991715  90.9810189  79.8763066  55.4861343
  90.8464657  79.1163467  54.9199341  90.5642252  80.6003966  55.0190132
 102.1169152  75.0599990  44.4937919 102.8205003  75.2649992  45.1095574
 101.3931801  75.6276752  44.7587002 102.9466963  70.8109851  50.6140189
 102.8902164  71.2678403  49.7747821 103.4995305  70.0500536  50.4363031
 106.7571769  66.5999583  51.4390308 106.5008703  66.1996219  52.2698516
 106.1324637  67.3143377  51.3140447  94.1379315  80.7732383  55.6979786
  94.0211699  81.7177816  55.5958476  93.3171762  80.4705945  56.0865585
 104.0255850  75.4982519  46.5436379 104.8601454  75.0663718  46.3613853
 103.8640193  75.3264533  47.4713273 103.6801742  72.0014632  47.9092718
 103.6250546  71.8358904  46.9681162 103.0547797  72.7090665  48.0654908
 100.9947649  74.3063544  67.2346281 101.8638809  74.4804197  66.8732916
 100.5154401  75.1257961  67.1122010  96.9897867  61.5022741  47.4878036
  96.9776537  62.4464581  47.6446307  97.8821289  61.3192887  47.1937497
  95.1633829  81.4260645  58.9135714  96.0661076  81.4584256  59.2302209
  94.9371199  80.4961096  58.9282050  96.9187431  80.1791632  55.5745793
  95.9683062  80.1793493  55.4610165  97.2219918  79.4324366  55.0581828
 100.8049987  58.0965518  51.7423973 100.0382383  57.5424005  51.8880655
 101.2160692  58.1687387  52.6038125  92.8091748  64.3850314  65.8329154
  93.6723210  64.0287119  66.0432479  92.2357159  64.0464209  66.5204559
 109.4629831  85.9679598  56.5753080 109.1248343  85.8520663  55.6873615
 110.3319599  85.5670763  56.5554086 105.3216647  87.8215075  52.5649971
 104.7581512  87.7305012  51.7966259 105.2069042  87.0014979  53.0452463
 109.9449614  87.1214450  62.5339286 109.9338255  86.7267248  61.6619789
 110.1070254  86.3880523  63.1273057 102.8681079  89.3166266  55.4034191
 103.6602371  88.9757091  54.9880491 103.1077729  89.4261241  56.3236345
 104.8271833  88.5775180  48.2751570 105.6002709  88.0304167  48.1364446
 105.1797232  89.4419429  48.4866032 106.6656875  89.9051562  61.4818470
 106.3746741  90.8097193  61.3665136 107.3013860  89.9468090  62.1962539
 107.5913082  87.2828410  58.0719829 108.1876654  87.0584433  57.3576792
 107.6488054  86.5413156  58.6745277 107.1638111  84.7367846  45.9070020
 107.4163631  84.2149367  45.1453483 106.2262670  84.5733991  46.0096704
 106.8834399  86.6395952  48.1094395 106.7670657  85.9640855  48.7775479
 106.9936659  86.1528326  47.2926548 109.2265940  86.1006099  51.8141084
 108.8624147  85.5736720  52.5254006 110.0833056  85.7104568  51.6407570
 108.8671427  81.1295999  46.8102433 109.0345830  81.9976235  47.1772904
 108.6768596  81.2923280  45.8863722 105.0759242  86.0426774  54.5104968
 104.1509738  85.9102988  54.7182659 105.3243655  86.8220994  55.0074910
 108.8460648  83.5853656  47.7949100 108.7260273  84.0310707  48.6334580
 108.1513236  83.9338974  47.2362638 102.4368053  85.6860048  55.3448757
 102.5660434  85.9394527  56.2588168 101.7565504  86.2787756  55.0253412
 109.0984770  83.5285163  64.1000598 108.3218104  84.0879083  64.0903462
 109.7375333  84.0141946  64.6215468 107.3531142  86.3370617  63.6618565
 108.0945827  86.8755661  63.3853388 106.6468128  86.9636905  63.8190117
 109.1817552  83.4172364  59.6324283 110.0278747  83.8411777  59.7758932
 109.1216190  82.7605988  60.3262846 108.7043258  88.7775356  53.2793100
 109.1681604  89.0563059  52.4897723 108.4400057  87.8758800  53.0966191
 105.5967339  88.3246837  56.2172864 106.1668697  88.7534106  55.5790348
 106.1875451  88.0429422  56.9157049 107.6412144  84.8998508  50.0882665
 108.3436188  85.3519552  50.5556592 107.3092773  84.2582327  50.7162559
 106.0892506  83.4910265  64.4633875 105.4591167  84.1726546  64.6969272
 105.9828594  83.3793346  63.5187013 101.3837478  83.1582061  55.3899799
 100.5936532  83.4139589  54.9139910 101.8748726  83.9730399  55.4951840
 103.3352224  83.5226640  52.3483276 102.5383387  83.6345334  52.8666771
 103.1077816  83.8613292  51.4824166 109.1657891  90.0471343  60.2965790
 109.2302324  90.5091750  61.1323962 108.4568815  89.4168708  60.4248100
  99.6675181  83.4112551  57.8214790  99.9183220  84.2959561  58.0872366
 100.2034730  83.2317153  57.0489882 108.8805909  91.7139451  50.1644771
 108.7451584  92.5590986  50.5929618 109.4215722  91.9158728  49.4010704
 105.3673249  77.7931031  66.8259126 104.9740194  77.2397229  67.5006770
 106.1839389  78.1041609  67.2165643 102.3335306  89.2314889  50.7372696
 102.8459827  90.0258139  50.8878260 102.9858019  88.5341179  50.6706297
 104.1430191  92.3480645  52.8195449 104.3196820  93.2698610  52.6316433
 104.9387025  92.0339064  53.2489829 108.2841210  79.2088910  64.4179382
 109.0250923  79.8096063  64.3383845 108.5159133  78.4666547  63.8597425
 103.4282548  84.3945277  62.6957612 103.3136063  83.4930534  62.9964711
 102.5727065  84.6408974  62.3442429 105.2661507  93.8658819  58.8205791
 105.8168932  93.7375882  58.0482785 104.4272983  94.1653708  58.4700684
 109.0628678  90.1309947  63.1650022 109.5957014  89.3698235  62.9349330
 108.5342759  89.8383598  63.9074177 100.2984223  87.5603543  51.5132266
 101.1359445  87.9700551  51.2965974 100.4762491  86.6202985  51.4832460
 109.7795766  80.0728324  52.2601338 108.9237363  79.6835175  52.0806976
 110.1922718  80.1520285  51.4001123 107.5537799  77.6913397  55.6659079
 108.4190796  77.4956206  55.3064969 107.6215308  77.4623749  56.5928436
 110.4281390  89.2595939  50.6768834 109.9002752  88.5248699  50.3642072
 109.9268893  90.0370615  50.4308803 105.1600118  79.9215605  53.0375446
 105.7343870  79.6990787  52.3048639 105.7471100  79.9904300  53.7904047
 105.4869705  81.9520066  47.0571331 104.6507017  82.2894753  47.3780606
 105.3474475  81.8169046  46.1198468 107.4622786  76.7956854  51.7650515
 106.8087198  76.4805871  51.1407130 107.4203260  76.1732595  52.4910338
 108.5733991  87.0776149  43.6803807 107.6661052  86.8465403  43.8794956
 109.0705023  86.2813769  43.8677789 109.7522224  87.1788744  48.2027797
 108.8433443  86.8947777  48.3000267 109.7817308  87.5987823  47.3431104
 100.3210394  84.8994258  52.1843000 100.1234794  84.3063619  51.4594066
  99.7657058  84.5946469  52.9018938 108.3007118  84.7917365  54.3037593
 108.3555728  83.8391201  54.2280069 107.4898320  84.9476804  54.7878891
 109.4498312  88.7197488  45.5415876 109.0117742  88.0033347  45.0821513
 110.1908753  88.9473603  44.9800967 106.2399478  83.4094425  52.0627972
 105.4267344  83.7088595  52.4693164 106.7358472  83.0150113  52.7802454
 108.3908056  93.4052182  53.9962236 108.3484235  93.6313028  53.0670768
 109.3070755  93.1715556  54.1448038 105.7313553  80.9812780  57.6789207
 106.3712932  80.8401539  56.9812170 104.8991083  80.6947294  57.3027809
 106.5073857  90.2815211  53.7924199 107.3014455  89.7865531  53.5906774
 105.7965549  89.7533074  53.4291905 102.8156620  84.4258292  49.8683952
 101.8854208  84.3642748  50.0853914 102.9114092  83.9034245  49.0720593
 102.7342169  80.9513105  52.4562193 102.9948986  81.8658438  52.3471354
 103.5559341  80.4837548  52.6058806 104.2067094  82.3650862  59.6261018
 104.8790148  82.1568224  58.9773667 103.3796881  82.1672948  59.1866250
 109.0845133  90.8544233  57.4722036 108.9456218  90.4863017  58.3447974
 108.2959729  91.3691872  57.3005994 104.6094592  85.6393465  60.3863455
 104.4714390  84.9073704  60.9874994 105.5199515  85.5502365  60.1047643
 107.2376892  85.3513425  59.8747135 107.9476511  84.7106617  59.8333753
 107.1946201  85.6026319  60.7973316 105.9505826  82.3378642  61.6942774
 105.4143183  81.8869381  62.3464371 105.3622535  82.4724551  60.9513239
 105.3608085  81.7967294  44.2569238 104.4837552  81.6756095  43.8931485
 105.8365838  81.0053372  44.0048127  96.8810225  86.5844454  54.3510745
  97.5681265  86.2706184  53.7631760  96.7258354  87.4885818  54.0777996
 101.6844948  81.4734650  58.7795769 101.6003136  80.8660320  58.0446179
 100.8627654  81.9643668  58.7805265 108.5472011  94.1493584  51.5031758
 107.7639533  94.6915264  51.5969983 109.2464757  94.6667564  51.9026000
 108.4403630  82.1005597  53.8737648 108.0701418  81.5476637  54.5618554
 108.9362723  81.4963730  53.3212648 106.2692829  92.5603092  60.9692666
 106.9702288  93.1939575  61.1222061 105.7987944  92.9017823  60.2088306
 101.8660547  92.0939447  57.9023769 102.4513984  91.3483135  58.0351673
 101.6685385  92.4043403  58.7860433 104.7199202  95.1290694  52.9186211
 104.0509577  95.6136822  52.4350251 104.5812072  95.3759915  53.8329590
  96.4578202  84.6645047  56.6228212  96.4962301  84.1308638  57.4165330
  95.9518494  84.1380252  56.0039189 103.8368964  79.5109587  60.1190754
 103.9010290  80.3724418  59.7068152 103.7736084  78.8983589  59.3863113
 103.3121236  81.5832720  63.7663789 103.9393275  81.2009797  64.3801313
 102.4549155  81.3646922  64.1319481 100.0886779  83.3909149  49.6982144
 100.3840220  82.4819828  49.6449197  99.1874815  83.3696889  49.3763146
 103.6181026  81.4665146  55.6809692 102.8967612  82.0801113  55.5417165
 104.4074282  82.0022911  55.6026338 106.4207340  78.8019572  61.9550344
 106.9441742  79.0481869  62.7176653 106.2019673  79.6339607  61.5353481
 101.8174621  81.0723247  49.8221469 101.4887327  80.1920626  49.6396575
 102.1713991  81.0170915  50.7097858 104.9316444  81.3596217  50.1896946
 105.2712516  81.8882138  49.4675555 105.3788564  81.6976623  50.9655513
 107.6259885  79.7433267  59.6400014 107.2856705  78.9441080  60.0420694
 106.9198891  80.0434978  59.0676848 108.2776357  76.8282580  58.0927337
 109.1002426  76.3543058  57.9706228 108.5214420  77.6073063  58.5926024
 106.9184591  79.8570838  48.3890239 107.6392954  80.2352091  47.8853956
 106.2949895  80.5759715  48.4925217 105.8014935  83.5201700  55.9019316
 105.6559516  83.8342003  56.7943598 105.3240139  84.1386601  55.3490215
 107.6611318  80.5104248  55.9500206 107.6472887  79.6145342  55.6132504
 108.3783746  80.5174912  56.5838492 109.5137449  80.9441589  57.9953333
 109.2555227  81.8658659  57.9937664 108.9822489  80.5472023  58.6853797
 100.2760597  86.0607045  58.8406977  99.7314066  86.8366853  58.9727252
 101.1539947  86.4077849  58.6826099 107.0648214  79.3918629  51.2187776
 107.1864125  78.4635275  51.4178663 106.7750257  79.4057315  50.3066091
 109.9339405  77.0773539  54.3554496 109.9561101  77.1412872  53.4006475
 110.3507464  76.2378048  54.5495002 101.0626619  85.1876941  61.7337134
 100.3208355  85.3359576  62.3201765 100.7419364  85.4485207  60.8703884
 101.5083233  93.0742370  53.7647529 102.3341253  92.7746142  53.3846172
 101.1577285  92.3049992  54.2137317 106.4764766  92.4268838  55.8345202
 105.8544775  91.7639543  55.5347430 107.1469633  92.4529970  55.1518850
  99.7091838  90.9928696  54.7236462  98.8723746  90.5650871  54.5420464
  99.6815484  91.1861140  55.6607254 106.5489294  80.9050626  65.4277708
 106.5977449  81.7812749  65.0455478 107.0911808  80.3628019  64.8549352
 106.0378273  90.9772761  49.3103663 106.1866393  91.6608226  48.6570336
 106.8444717  90.9577851  49.8253119 108.7788582  81.6581998  62.1824067
 107.9091892  81.9515564  61.9106656 109.0148062  82.2422443  62.9031331
 103.7930906  87.0037939  50.3164732 103.5476948  86.1000269  50.5144942
 103.9626821  87.0055089  49.3744210 103.0626554  82.7366297  47.8150893
 102.3695799  82.8110652  47.1590929 102.8178306  81.9726640  48.3372410
 109.5373679  93.4720892  46.7815410 108.9647646  94.0911079  46.3285882
 110.1106472  94.0220253  47.3155332 108.1063394  82.7331681  44.0586348
 107.1994850  82.4364794  44.1349062 108.3839375  82.4361499  43.1920634
  99.0241335  84.0538044  54.5085394  98.7044119  83.2003353  54.2159768
  98.4774763  84.2686622  55.2643362 102.8021242  86.7700485  58.2254901
 103.0207252  87.7017593  58.2442935 103.2147016  86.4108460  59.0109705
 109.7225460  77.2768571  50.2130589 108.9126188  76.9315656  50.5885835
 110.4109877  76.9676114  50.8018201 107.6749108  82.3433691  67.6157650
 107.5745834  83.2928048  67.5469741 107.4570650  82.0151930  66.7433720
 106.8762179  79.5918616  44.1998327 107.7381343  79.9173514  44.4594145
 107.0612523  78.8050112  43.6871393  98.8929595  87.6740956  56.4778516
  98.1993066  87.2594909  55.9648470  99.6402586  87.7161492  55.8811935
 107.5380378  85.7730830  66.4322712 107.0547459  86.5731190  66.6386601
 107.6241317  85.7838775  65.4790156 100.8066337  87.6059210  54.3544531
 100.7837025  87.7046897  53.4026414 101.1166974  88.4524360  54.6761697
 103.4653715  89.6635365  58.4691145 104.4196969  89.6319307  58.4021077
 103.2666239  89.2025988  59.2841371 104.0553097  88.2336481  61.0361943
 104.8745986  88.7280559  61.0596780 104.3289905  87.3168449  61.0079511
 101.8203944  95.2054984  55.4861343 101.6858412  94.4455385  54.9199341
 101.4036006  95.9295884  55.0190132 104.9773070  96.1024301  55.6979786
 104.8605454  97.0469734  55.5958476 104.1565516  95.7997863  56.0865585
  99.3088011  82.5674615  61.7354140  99.9546875  82.0573568  62.2241365
  99.1005163  83.3043296  62.3097565 107.8291622  76.8314659  47.4878036
 107.8170292  77.7756499  47.6446307 108.7215044  76.6484805  47.1937497
 106.0027584  96.7552563  58.9135714 106.9054831  96.7876173  59.2302209
 105.7764954  95.8253014  58.9282050 107.7581186  95.5083550  55.5745793
 106.8076817  95.5085411  55.4610165 108.0613672  94.7616284  55.0581828
 103.6485502  79.7142232  65.8329154 104.5116964  79.3579036  66.0432479
 103.0750913  79.3756126  66.5204559  52.4098769  -3.2840168  38.1684538
  52.3322799  -2.3332343  38.2473018  51.8060413  -3.6294296  38.8259464
  50.0485599  -0.5354774  42.3132740  50.2882197   0.0963750  42.9911758
  49.2054795  -0.8866734  42.5998099  50.5230431  -4.5106772  39.6431518
  49.8540806  -4.0260644  39.1595558  50.3843301  -4.2637551  40.5574897
  54.6635699  -2.4763028  46.2414176  55.2154008  -2.3131407  47.0063262
  55.0041893  -1.8858590  45.5694201  47.6235173  -4.4342482  42.2106650
  47.4889641  -5.1942081  41.6444648  47.2067235  -3.7101582  41.7435439
  50.7804299  -3.5373165  42.4225093  50.6636683  -2.5927732  42.3203783
  49.9596745  -3.8399603  42.8110892  51.8058813  -2.8844903  45.6381021
  52.7086059  -2.8521293  45.9547516  51.5796183  -3.8144452  45.6527357
  66.1054814   1.6574050  43.2998387  65.7673326   1.5415115  42.4118922
  66.9744583   1.2565215  43.2799393  61.9641630   3.5109527  39.2895278
  61.4006495   3.4199464  38.5211565  61.8494025   2.6909431  39.7697770
  66.5874597   2.8108902  49.2584592  66.5763238   2.4161700  48.3865096
  66.7495237   2.0774975  49.8518364  59.5106062   5.0060718  42.1279498
  60.3027354   4.6651543  41.7125797  59.7502712   5.1155693  43.0481651
  67.5441189   7.1780494  34.6009743  66.8929169   7.7634575  34.2143756
  68.3385552   7.7086689  34.6604780  61.4696816   4.2669632  34.9996877
  62.2427692   3.7198619  34.8609753  61.8222215   5.1313881  35.2111338
  63.3081859   5.5946014  48.2063776  63.0171725   6.4991645  48.0910442
  63.9438843   5.6362541  48.9207846  64.2338065   2.9722862  44.7965136
  64.8301638   2.7478885  44.0822099  64.2913037   2.2307608  45.3990584
  69.0216454   4.8670926  35.1378727  68.3862287   4.9405553  35.8499631
  68.6913860   5.4564525  34.4597806  63.5259383   2.3290404  34.8339702
  63.4095641   1.6535307  35.5020786  63.6361642   1.8422778  34.0171855
  65.8690924   1.7900551  38.5386391  65.5049131   1.2631172  39.2499312
  66.7258039   1.3999020  38.3652876  68.2671744   5.2807429  45.2013570
  67.9672467   6.1832468  45.0929377  67.9222803   5.0139613  46.0534723
  61.7184225   1.7321226  41.2350274  60.7934722   1.5997440  41.4427966
  61.9668638   2.5115445  41.7320217  59.0793036   1.3754500  42.0694063
  59.2085417   1.6288979  42.9833475  58.3990487   1.9682208  41.7498718
  63.2492523  12.0451750  38.1684538  63.1716553  12.9959575  38.2473018
  62.6454167  11.6997622  38.8259464  63.9956126   2.0265068  50.3863871
  64.7370810   2.5650112  50.1098695  63.2893111   2.6531357  50.5435423
  69.4711465   4.1694209  48.9836033  69.8794821   3.7276619  48.2390665
  68.7488727   3.5946836  49.2370226  69.7940280   4.7295400  42.7388322
  69.1649142   4.8941114  42.0364390  69.4065942   5.1437009  43.5099286
  73.6729512   5.6649837  40.0932686  72.9880550   6.0448739  39.5429719
  73.7573361   6.2745164  40.8264633  65.3468242   4.4669808  40.0038407
  65.8106587   4.7457511  39.2143029  65.0825040   3.5653252  39.8211498
  62.2392323   4.0141289  42.9418170  62.8093680   4.4428558  42.3035655
  62.8300435   3.7323874  43.6402356  58.0262462  -1.1523487  42.1145106
  57.2361516  -0.8965959  41.6385216  58.5173709  -0.3375149  42.2197146
  72.0426271   6.1881752  44.8650386  72.8643715   5.7861939  44.5833068
  72.0388674   6.0849986  45.8166502  59.9777207  -0.7878908  39.0728582
  59.1808370  -0.6760214  39.5912078  59.7502799  -0.4492256  38.2069473
  65.8082875   5.7365795  47.0211097  65.8727307   6.1986202  47.8569269
  65.0993799   5.1063160  47.1493407  56.3100165  -0.8992997  44.5460096
  56.5608203  -0.0145987  44.8117672  56.8459713  -1.0788395  43.7735188
  65.5230892   7.4033903  36.8890077  65.3876567   8.2485438  37.3174925
  66.0640705   7.6053180  36.1256011  58.9760290   4.9209341  37.4618002
  59.4884810   5.7152591  37.6123567  59.6283003   4.2235631  37.3951604
  60.7855174   8.0375097  39.5440756  60.9621803   8.9593062  39.3561739
  61.5812008   7.7233516  39.9735135  60.0707531   0.0839729  49.4202919
  59.9561046  -0.8175014  49.7210018  59.2152049   0.3303426  49.0687735
  67.1499369   8.0257469  51.0190419  66.7063223   7.2393848  50.7011324
  67.8116582   8.2136620  50.3534310  61.9086490   9.5553271  45.5451098
  62.4593915   9.4270334  44.7728092  61.0697966   9.8548160  45.1945991
  69.2480607   8.3060269  49.0471821  69.2299082   9.1269150  48.5552090
  70.1700527   8.1814344  49.2721962  65.7053661   5.8204399  49.8895329
  66.2381998   5.0592687  49.6594637  65.1767742   5.5278050  50.6319483
  56.9409207   3.2497995  38.2377573  57.7784429   3.6595003  38.0211281
  57.1187474   2.3097437  38.2077767  67.0706374   4.9490391  37.4014141
  66.5427735   4.2143151  37.0887378  66.5693876   5.7265067  37.1554109
  72.0499220   3.1439412  42.5181187  71.3922894   3.8338673  42.6061316
  72.8539619   3.5335843  42.8615174  65.2158974   2.7670601  30.4049114
  64.3086036   2.5359855  30.6040263  65.7130006   1.9708221  30.5923096
  68.1227053  11.4768108  33.3245800  67.4488752  11.7799805  33.9330758
  68.5092875  12.2797189  32.9751257  66.3947207   2.8683196  34.9273104
  65.4858427   2.5842229  35.0245574  66.4242291   3.2882275  34.0676411
  71.6266475   6.4789786  38.6964272  71.1728802   5.6380696  38.7529462
  70.9960441   7.1151184  39.0339052  70.0699414   8.3166282  39.6314090
  70.3622388   8.8771339  38.9126455  70.5798035   8.6094843  40.3867249
  56.9635378   0.5888710  38.9088306  56.7659778  -0.0041929  38.1839373
  56.4082042   0.2840920  39.6264245  66.0923295   4.4091940  32.2661183
  65.6542725   3.6927799  31.8066820  66.8333736   4.6368055  31.7046274
  65.0333039   9.0946633  40.7207543  64.9909218   9.3207480  39.7916075
  65.9495738   8.8610008  40.8693344  74.2365790   4.7525664  43.3348773
  74.6702296   4.6600953  44.1831827  74.9497370   4.7283164  42.6968789
  63.1498840   5.9709662  40.5169506  63.9439438   5.4759983  40.3152081
  62.4390532   5.4427526  40.1537211  67.9693684   8.3527758  44.8681873
  68.0230707   8.9218694  45.6359589  67.1008466   8.5229643  44.5035911
  59.4581603   0.1152744  36.5929258  58.5279192   0.0537200  36.8099221
  59.5539075  -0.4071303  35.7965900  75.0981339   4.7949365  45.8681658
  75.2917229   5.6995175  46.1140933  74.9981957   4.3356784  46.7020243
  70.1596448   4.9456107  51.4422539  70.0081954   4.7166659  50.5252622
  70.1501127   5.9026709  51.4553884  66.9281784   2.5188020  46.4268805
  67.8573844   2.6699180  46.2537773  66.5072814   2.6072041  45.5717452
  65.7270116   6.5438684  44.1967343  65.5881202   6.1757469  45.0693281
  64.9384712   7.0586324  44.0251301  66.3218268  11.6447781  35.5392879
  66.4970024  11.1735824  36.3538502  65.6351056  12.2713547  35.7674140
  67.2775331   5.9220287  41.5856181  66.9425164   5.8821057  42.4813831
  66.7779277   5.2565003  41.1126591  61.2519575   1.3287917  47.1108762
  61.1139373   0.5968156  47.7120301  62.1624499   1.2396817  46.8292950
  70.2134523   3.2676321  31.8593240  69.5963693   2.5423150  31.7626293
  69.7451011   4.0285682  31.5160315  63.8801876   1.0407876  46.5992441
  64.5901494   0.4001069  46.5579060  63.8371184   1.2920771  47.5218622
  71.8688654   7.9775230  49.5199021  71.8101201   7.2934450  48.8529604
  72.2708173   8.7194220  49.0679647  60.8879353  14.7937144  42.3132740
  61.1275951  15.4255668  42.9911758  60.0448550  14.4425184  42.5998099
  71.8706062   5.9414814  47.7513000  70.9832840   5.6040736  47.8739399
  72.4404613   5.2097845  47.9881766  53.5235209   2.2738905  41.0756052
  54.2106249   1.9600636  40.4877067  53.3683337   3.1780270  40.8023303
  65.4007215  10.6016266  44.7174244  65.3277387  11.4071238  45.2293548
  64.9584608  10.8008232  43.8922265  65.1896995   9.8388036  38.2277065
  64.4064517  10.3809716  38.3215290  65.8889740  10.3562016  38.6271306
  67.8605899  10.5003100  46.8732402  68.5733871  11.1350565  46.8008304
  67.3695927  10.5966966  46.0572404  69.5823425   4.4054353  38.4449694
  68.6479704   4.5255815  38.2754398  69.7600094   3.5026820  38.1809704
  62.9117812   8.2497544  47.6937973  63.6127272   8.8834027  47.8467367
  62.4412927   8.5912275  46.9333612  71.0372208   6.5915493  35.9785880
  71.3132052   6.4772088  36.8879754  70.1676707   6.1932978  35.9398053
  67.6726272  10.8401844  39.6218694  67.8548666  10.0223500  40.0846446
  68.4959258  11.0569536  39.1843584  68.0068437   9.7670029  36.8833742
  68.5356204   9.2562484  36.2703904  68.2696657   9.4512560  37.7479275
  58.5085530   7.7833899  44.6269076  59.0938967   7.0377587  44.7596980
  58.3110369   8.0937855  45.5105740  61.3624185  10.8185146  39.6431518
  60.6934561  11.3031274  39.1595558  61.2237055  11.0654366  40.5574897
  53.1003185   0.3539499  43.3473519  53.1387284  -0.1796910  44.1410637
  52.5943478  -0.1725296  42.7284496  65.5029454  12.8528890  46.2414176
  66.0547762  13.0160511  47.0063262  65.8435647  13.4433327  45.5694201
  70.3540328   7.6790147  52.0962831  70.8980232   8.2920105  51.6017786
  69.7727173   8.2369725  52.6129844  56.7311762  -0.9196399  36.4227450
  57.0265204  -1.8285721  36.3694504  55.8299798  -0.9408660  36.1008453
  68.6397841  10.8010865  43.2277859  68.5148981  10.0000605  42.7188804
  69.2976932  11.2957058  42.7391829  70.7032750   8.6019885  44.8557409
  69.7563085   8.4825236  44.7835735  71.0515523   7.7142383  44.9383670
  67.7079183   8.3972601  41.0561761  67.5604145   7.4689309  41.2369331
  68.5332676   8.4192692  40.5718836  71.3113305   9.2201160  42.1426634
  72.2359852   9.0144021  42.0051085  71.1428608   8.9717561  43.0515975
  71.1008621   9.7386828  37.4988725  71.2745499   9.1733250  36.7462578
  71.5937512  10.5387722  37.3168215  56.9185581   1.7501497  45.5652284
  56.3739049   2.5261305  45.6972558  57.7964931   2.0972301  45.4071405
  72.0883793   9.0553592  34.5985623  72.7834698   9.6760285  34.8172938
  72.4306944   8.2048943  34.8738001  57.7051603   0.8771393  48.4582441
  56.9633339   1.0254028  49.0447071  57.3844347   1.1379659  47.5949190
  73.9875217   6.5053297  36.1272954  74.5126541   6.8440570  35.4022274
  73.8997569   5.5700313  35.9436089  65.6495265  10.4187371  48.2562831
  65.9582392  10.1736518  49.1285530  66.4470747  10.6234010  47.7681701
  65.6715877  12.5725281  40.4868207  65.2320868  12.0801659  41.1801064
  66.4223994  12.0298248  40.2460283  58.1508216   8.7636822  40.4892835
  58.9766236   8.4640594  40.1091479  57.8002268   7.9944444  40.9382624
  63.1189749   8.1163290  42.5590509  62.4969759   7.4533995  42.2592737
  63.7894616   8.1424422  41.8764157  56.3516821   6.6823148  41.4481769
  55.5148730   6.2545322  41.2665770  56.3240467   6.8755591  42.3852560
  73.6769123   7.1386201  51.4324152  72.8864666   7.1210340  50.8928652
  73.4402477   7.6774495  52.1873189  62.6803256   6.6667213  36.0348970
  62.8291377   7.3502678  35.3815642  63.4869700   6.6472303  36.5498425
  75.2985195   6.4075609  48.9898902  75.0070003   6.7705590  49.8262363
  74.6857326   5.6942617  48.8112234  60.4355889   2.6932391  37.0410038
  60.1901931   1.7894721  37.2390249  60.6051804   2.6949541  36.0989516
  66.1798662   9.1615344  33.5060717  65.6072629   9.7805531  33.0531189
  66.7531456   9.7114705  34.0400639  69.3995922   9.4452494  34.6369299
  70.3326595   9.3798055  34.8402175  69.3119135  10.2808761  34.1783832
  72.0283938   8.7618364  31.5973247  71.9497570   8.4278228  32.4909005
  72.8493605   9.2540132  31.5964719  66.4484153   4.5493903  52.3077426
  67.3687162   4.7272502  52.5017473  66.4133736   3.6049948  52.1557126
  55.6666318  -0.2567504  41.2330701  55.3469102  -1.1102196  40.9405075
  55.1199746  -0.0418926  41.9888668  59.4446226   2.4594937  44.9500208
  59.6632235   3.3912045  44.9688241  59.8571999   2.1002912  45.7355011
  55.5354578   3.3635408  43.2023823  54.8418049   2.9489360  42.6893777
  56.2827569   3.4055944  42.6057242  64.1805361   1.4625282  53.1568018
  63.6972443   2.2625642  53.3631907  64.2666300   1.4733227  52.2035462
  57.4491320   3.2953661  41.0789838  57.4262009   3.3941349  40.1271721
  57.7591957   4.1418812  41.4007004  60.1078698   5.3529816  45.1936452
  61.0621952   5.3213759  45.1266384  59.9091222   4.8920440  46.0086678
  60.6978080   3.9230933  47.7607250  61.5170969   4.4175011  47.7842087
  60.9714888   3.0062901  47.7324817  58.4628927  10.8949436  42.2106650
  58.3283395  10.1349837  41.6444648  58.0460989  11.6190336  41.7435439
  69.5987890   6.0786360  31.2183225  70.3023740   6.2836362  31.8340881
  68.8750539   6.6463121  31.4832309  61.6198053  11.7918753  42.4225093
  61.5030437  12.7364185  42.3203783  60.7990499  11.4892315  42.8110892
  71.5074588   6.5168889  33.2681685  72.3420192   6.0850087  33.0859160
  71.3458930   6.3450902  34.1958580  71.1620480   3.0201002  34.6338025
  71.1069284   2.8545273  33.6926469  70.5366535   3.7277035  34.7900214
  55.9512995  -1.7430934  48.4599447  56.5971858  -2.2531980  48.9486672
  55.7430146  -1.0062252  49.0342872  68.4766387   5.3249914  53.9591587
  69.3457547   5.4990566  53.5978222  67.9973138   6.1444331  53.8367317
  62.6452567  12.4447015  45.6381021  63.5479814  12.4770625  45.9547516
  62.4189937  11.5147466  45.6527357  64.4006169  11.1978001  42.2991100
  63.4501800  11.1979863  42.1855472  64.7038655  10.4510736  41.7827134
  80.1358863  17.0338540  43.3636862  80.7737273  16.9145287  42.6600202
  80.0179706  17.9819384  43.4224814  76.9448569  16.9865968  43.2998387
  76.6067080  16.8707033  42.4118922  77.8138337  16.5857133  43.2799393
  72.8035385  18.8401444  39.2895278  72.2400250  18.7491381  38.5211565
  72.6887780  18.0201349  39.7697770  77.4268352  18.1400820  49.2584592
  77.4156993  17.7453618  48.3865096  77.5888991  17.4066892  49.8518364
  70.3499817  20.3352636  42.1279498  71.1421108  19.9943461  41.7125797
  70.5896467  20.4447611  43.0481651  78.3834943  22.5072412  34.6009743
  77.7322923  23.0926492  34.2143756  79.1779306  23.0378607  34.6604780
  72.3090571  19.5961549  34.9996877  73.0821447  19.0490536  34.8609753
  72.6615969  20.4605799  35.2111338  74.1475613  20.9237931  48.2063776
  73.8565479  21.8283562  48.0910442  74.7832597  20.9654459  48.9207846
  75.0731820  18.3014780  44.7965136  75.6695392  18.0770802  44.0822099
  75.1306791  17.5599525  45.3990584  74.6456848  15.7554215  32.6315327
  74.8982369  15.2335737  31.8698790  73.7081407  15.5920361  32.7342010
  79.6900131  14.7589994  40.4390070  80.4763220  14.3409417  40.0880487
  79.9538835  15.6636086  40.6071718  79.8610209  20.1962844  35.1378727
  79.2256041  20.2697471  35.8499631  79.5307615  20.7856443  34.4597806
  85.0908558  14.6965227  41.3423049  85.8233730  14.1264444  41.5760878
  84.3347914  14.3086827  41.7829554  74.3653137  17.6582321  34.8339702
  74.2489395  16.9827225  35.5020786  74.4755397  17.1714695  34.0171855
  76.7084678  17.1192468  38.5386391  76.3442885  16.5923089  39.2499312
  77.5651794  16.7290937  38.3652876  82.6133979   8.4086801  45.8017657
  82.2817303   9.2782212  45.5778872  82.0179592   8.0923085  46.4811688
  76.3490165  12.1482368  33.5347739  76.5164567  13.0162604  33.9018211
  76.1587334  12.3109650  32.6109029  79.1065498  20.6099347  45.2013570
  78.8066221  21.5124386  45.0929377  78.7616558  20.3431530  46.0534723
  72.5577980  17.0613144  41.2350274  71.6328476  16.9289358  41.4427966
  72.8062393  17.8407363  41.7320217  82.5062642  13.1281887  42.8811007
  81.5979519  13.0597296  42.5869768  82.4550238  13.6053832  43.7092833
  76.3279386  14.6040026  34.5194406  76.2079011  15.0497076  35.3579887
  75.6331974  14.9525343  33.9607944  69.9186791  16.7046417  42.0694063
  70.0479172  16.9580896  42.9833475  69.2384242  17.2974125  41.7498718
  74.0886278  27.3743667  38.1684538  74.0110308  28.3251492  38.2473018
  73.4847922  27.0289540  38.8259464  76.5803508  14.5471533  50.8245904
  75.8036842  15.1065453  50.8148769  77.2194071  15.0328316  51.3460775
  84.3724288  11.3298326  44.6588881  83.7298669  11.6230859  44.0128676
  83.8679217  11.2151246  45.4642078  82.0264452  15.0761499  35.3474740
  82.9382308  15.3088886  35.1722438  81.5174099  15.6598543  34.7849819
  74.8349880  17.3556986  50.3863871  75.5764564  17.8942030  50.1098695
  74.1286866  17.9823275  50.5435423  80.3105220  19.4986127  48.9836033
  80.7188576  19.0568537  48.2390665  79.5882481  18.9238754  49.2370226
  76.6636290  14.4358733  46.3569590  77.5097485  14.8598147  46.5004239
  76.6034927  13.7792358  47.0508153  80.6334034  20.0587317  42.7388322
  80.0042897  20.2233031  42.0364390  80.2459696  20.4728927  43.5099286
  84.5123266  20.9941755  40.0932686  83.8274304  21.3740656  39.5429719
  84.5967116  21.6037082  40.8264633  79.8135735  12.0963102  48.0150764
  79.5696667  12.8505162  47.4785039  80.0895666  12.4748449  48.8498011
  81.7674198  18.6401714  46.6928029  81.9791093  19.2833474  46.0162410
  81.7203946  17.8064031  46.2249959  79.3700427  11.2519535  43.5964601
  78.5084906  11.5500788  43.8881339  79.3962861  11.4689934  42.6645634
  76.1861996  19.7961725  40.0038407  76.6500342  20.0749428  39.2143029
  75.9218794  18.8945170  39.8211498  73.0786077  19.3433207  42.9418170
  73.6487434  19.7720475  42.3035655  73.6694189  19.0615792  43.6402356
  75.1230882  15.9184878  36.8127972  75.8254926  16.3705921  37.2801898
  74.7911511  15.2768697  37.4407865  73.5711244  14.5096634  51.1879181
  72.9409904  15.1912915  51.4214578  73.4647332  14.3979716  50.2432320
  68.8656216  14.1768430  42.1145106  68.0755270  14.4325959  41.6385216
  69.3567464  14.9916768  42.2197146  82.8820026  21.5173670  44.8650386
  83.7037470  21.1153857  44.5833068  82.8782429  21.4141904  45.8166502
  70.8170962  14.5413010  39.0728582  70.0202125  14.6531704  39.5912078
  70.5896554  14.8799662  38.2069473  76.6476629  21.0657713  47.0211097
  76.7121062  21.5278120  47.8569269  75.9387553  20.4355078  47.1493407
  67.1493919  14.4298921  44.5460096  67.4001958  15.3145931  44.8117672
  67.6853468  14.2503522  43.7735188  90.9726019  17.8612418  41.2135358
  90.2189727  17.2919816  41.0579362  91.1073560  17.8275082  42.1605993
  76.3624647  22.7325820  36.8890077  76.2270322  23.5777356  37.3174925
  76.9034459  22.9345098  36.1256011  72.8491987   8.8117400  53.5504432
  72.4558932   8.2583599  54.2252077  73.6658127   9.1227979  53.9410950
  69.8154044  20.2501258  37.4618002  70.3278565  21.0444509  37.6123567
  70.4676757  19.5527549  37.3951604  71.6248929  23.3667015  39.5440756
  71.8015557  24.2884979  39.3561739  72.4205762  23.0525434  39.9735135
  75.7659948  10.2275279  51.1424689  76.5069661  10.8282432  51.0629152
  75.9977870   9.4852917  50.5842732  70.9101286  15.4131646  49.4202919
  70.7954801  14.5116904  49.7210018  70.0545803  15.6595343  49.0687735
  77.9893123  23.3549387  51.0190419  77.5456977  22.5685765  50.7011324
  78.6510337  23.5428537  50.3534310  72.7480244  24.8845188  45.5451098
  73.2987670  24.7562252  44.7728092  71.9091720  25.1840077  45.1945991
  80.0874361  23.6352187  49.0471821  80.0692837  24.4561068  48.5552090
  81.0094281  23.5106262  49.2721962  76.5447415  21.1496316  49.8895329
  77.0775752  20.3884604  49.6594637  76.0161497  20.8569968  50.6319483
  79.7117110   6.2556382  45.4188971  79.3681380   7.1458024  45.3428081
  80.0796073   6.0658040  44.5558556  67.7802961  18.5789913  38.2377573
  68.6178183  18.9886921  38.0211281  67.9581229  17.6389355  38.2077767
  79.6767393  16.2464993  33.9261406  79.1614017  17.0169598  34.1649793
  79.4044702  15.5730129  34.5494467  77.2614504  11.0914694  38.9846644
  76.4056101  10.7021544  38.8052283  77.6741456  11.1706655  38.1246430
  78.7913651   8.6261037  43.3838204  78.2878446   8.5891172  42.5706009
  79.0844258   9.5353780  43.4434861  75.0356537   8.7099767  42.3904386
  75.9009533   8.5142576  42.0310275  75.1034046   8.4810119  43.3173742
  84.6501667  18.9997348  35.8614579  83.8731110  18.6608507  35.4169741
  85.3293148  19.0049971  35.1869544  79.4653696  14.1192085  35.7521187
  79.1603832  14.4338235  36.6031330  80.4184138  14.1973505  35.7948520
  77.9100128  20.2782309  37.4014141  77.3821490  19.5435068  37.0887378
  77.4087631  21.0556985  37.1554109  82.8892974  18.4731329  42.5181187
  82.2316649  19.1630591  42.6061316  83.6933373  18.8627761  42.8615174
  72.6418856  10.9401975  39.7620753  73.2162608  10.7177156  39.0293945
  73.2289838  11.0090669  40.5149354  81.6998433  16.8275702  40.5685129
  82.2130315  17.4605694  41.0706839  82.3499657  16.2276897  40.2028489
  72.9688443  12.9706436  33.7816638  72.1325755  13.3081123  34.1025913
  72.8293213  12.8355416  32.8443775  74.9441524   7.8143224  38.4895822
  74.2905936   7.4992241  37.8652437  74.9021998   7.1918964  39.2155645
  76.0552728  18.0962519  30.4049114  75.1479790  17.8651772  30.6040263
  76.5523760  17.3000138  30.5923096  78.9620807  26.8060026  33.3245800
  78.2882506  27.1091723  33.9330758  79.3486629  27.6089106  32.9751257
  78.1779264  14.3025157  42.8143470  77.2601825  14.5240104  42.6565158
  78.5939407  14.3771468  41.9555177  78.9614312  15.7016573  37.9446150
  79.7086131  16.2137970  37.6353272  79.2305901  15.3800626  38.8050543
  77.2340962  18.1975114  34.9273104  76.3252181  17.9134147  35.0245574
  77.2636046  18.6174192  34.0676411  82.4660229  21.8081703  38.6964272
  82.0122556  20.9672613  38.7529462  81.8354196  22.4443102  39.0339052
  81.4093149  12.7373689  39.9264939  80.6715906  12.2251076  40.2575182
  81.6619922  12.2974071  39.1148216  80.9093168  23.6458200  39.6314090
  81.2016143  24.2063257  38.9126455  81.4191789  23.9386761  40.3867249
  67.8029132  15.9180628  38.9088306  67.6053532  15.3249989  38.1839373
  67.2475796  15.6132838  39.6264245  75.7825856  15.8103734  41.0282899
  75.8374466  14.8577571  40.9525376  74.9717058  15.9663174  41.5124198
  76.9317050  19.7383857  32.2661183  76.4936480  19.0219716  31.8066820
  77.6727490  19.9659972  31.7046274  73.7218216  14.4280794  38.7873278
  72.9086081  14.7274965  39.1938470  74.2177210  14.0336483  39.5047761
  75.8726794  24.4238551  40.7207543  75.8302972  24.6499397  39.7916075
  76.7889493  24.1901926  40.8693344  79.3192427  14.8922619  47.6188172
  79.6741815  15.1194092  48.4782638  79.9664559  15.2240995  46.9965428
  85.0490164  18.0141055  38.3237501  84.9108063  18.2042651  37.3958690
  84.6926383  18.7760437  38.7805552  73.2132291  11.9999150  44.4034513
  73.8531670  11.8587909  43.7057477  72.3809821  11.7133663  44.0273115
  85.0759544  20.0817582  43.3348773  85.5096051  19.9892871  44.1831827
  85.7891125  20.0575082  42.6968789  73.9892594  21.3001580  40.5169506
  74.7833193  20.8051900  40.3152081  73.2784287  20.7719443  40.1537211
  78.8087439  23.6819676  44.8681873  78.8624461  24.2510612  45.6359589
  77.9402220  23.8521561  44.5035911  70.2975358  15.4444662  36.5929258
  69.3672946  15.3829117  36.8099221  70.3932830  14.9220615  35.7965900
  70.2160907  11.9699475  39.1807500  70.4767724  12.8844808  39.0716661
  71.0378079  11.5023917  39.3304113  71.6885832  13.3837232  46.3506325
  72.3608886  13.1754594  45.7018974  70.8615619  13.1859318  45.9111557
  85.9375094  20.1241282  45.8681658  86.1310984  21.0287093  46.1140933
  85.8375712  19.6648701  46.7020243  77.5911404  10.0099173  48.3671986
  76.9439319  10.7089122  48.2736462  78.3612420  10.4435317  48.7348234
  80.9990202  20.2748025  51.4422539  80.8475709  20.0458577  50.5252622
  80.9894882  21.2318626  51.4553884  77.7675539  17.8479938  46.4268805
  78.6967599  17.9991097  46.2537773  77.3466569  17.9363958  45.5717452
  76.5663870  21.8730602  44.1967343  76.4274956  21.5049386  45.0693281
  75.7778467  22.3878242  44.0251301  77.1612022  26.9739699  35.5392879
  77.3363778  26.5027742  36.3538502  76.4744810  27.6005465  35.7674140
  78.1169086  21.2512205  41.5856181  77.7818918  21.2112975  42.4813831
  77.6173031  20.5856921  41.1126591  72.0913330  16.6579835  47.1108762
  71.9533127  15.9260074  47.7120301  73.0018253  16.5688735  46.8292950
  81.0528277  18.5968239  31.8593240  80.4357448  17.8715067  31.7626293
  80.5844766  19.3577599  31.5160315  74.7195630  16.3699794  46.5992441
  75.4295249  15.7292986  46.5579060  74.6764938  16.6212689  47.5218622
  82.7082409  23.3067147  49.5199021  82.6494955  22.6226368  48.8529604
  83.1101927  24.0486137  49.0679647  73.4324564  13.3565012  48.4188081
  72.8961921  12.9055750  49.0709677  72.8441273  13.4910921  47.6758545
  71.7273108  30.1229061  42.3132740  71.9669706  30.7547585  42.9911758
  70.8842304  29.7717101  42.5998099  72.8426823  12.8153663  30.9814545
  71.9656289  12.6942464  30.6176791  73.3184576  12.0239742  30.7293433
  82.7099816  21.2706731  47.7513000  81.8226595  20.9332653  47.8739399
  83.2798367  20.5389763  47.9881766  64.3628963  17.6030823  41.0756052
  65.0500003  17.2892553  40.4877067  64.2077092  18.5072188  40.8023303
  69.1663685  12.4921020  45.5041075  69.0821874  11.8846689  44.7691485
  68.3446392  12.9830038  45.5050572  76.2400970  25.9308184  44.7174244
  76.1671141  26.7363155  45.2293548  75.7978363  26.1300150  43.8922265
  76.0290749  25.1679954  38.2277065  75.2458271  25.7101634  38.3215290
  76.7283494  25.6853933  38.6271306  79.3387399  10.9774583  40.8711270
  79.8356099  10.2244546  40.5512341  78.5674381  11.0138900  40.3054480
  87.1917157  16.6814949  42.5129562  87.1807033  17.5639664  42.1423495
  86.3234536  16.3286500  42.3184099  78.6999653  25.8295018  46.8732402
  79.4127625  26.4642483  46.8008304  78.2089682  25.9258884  46.0572404
  80.4217180  19.7346270  38.4449694  79.4873459  19.8547733  38.2754398
  80.5993848  18.8318737  38.1809704  75.9222368  13.1191966  40.5982955
  75.5520156  12.5663007  41.2863861  76.4181460  12.5150100  40.0457955
  83.8089731  15.5763590  38.9799728  84.2750184  16.4091581  38.9060031
  84.2597232  15.1108571  39.6844986  73.7511567  23.5789461  47.6937973
  74.4521026  24.2125944  47.8467367  73.2806682  23.9204193  46.9333612
  81.8765962  21.9207411  35.9785880  82.1525806  21.8064006  36.8879754
  81.0070461  21.5224896  35.9398053  81.7806394   7.9444177  43.0190629
  80.8669474   8.1748404  43.1872836  82.2099496   8.0282621  43.8704662
  81.5512853  16.1334069  45.5190523  80.8984303  16.3809976  44.8642976
  81.9293232  15.3198207  45.1853001  78.5120026  26.1693762  39.6218694
  78.6942421  25.3515418  40.0846446  79.3353012  26.3861454  39.1843584
  78.8462192  25.0961947  36.8833742  79.3749958  24.5854402  36.2703904
  79.1090412  24.7804477  37.7479275  77.6000426  16.8753880  52.0056560
  76.9241063  16.7748009  52.6758936  78.4228059  16.7193094  52.4692558
  69.3479285  23.1125816  44.6269076  69.9332721  22.3669504  44.7596980
  69.1504123  23.4229773  45.5105740  72.2017940  26.1477064  39.6431518
  71.5328315  26.6323191  39.1595558  72.0630810  26.3946284  40.5574897
  63.9396939  15.6831417  43.3473519  63.9781039  15.1495007  44.1410637
  63.4337232  15.1566622  42.7284496  76.3423208  28.1820807  46.2414176
  76.8941516  28.3452429  47.0063262  76.6829402  28.7725245  45.5694201
  71.3187702  10.5295957  46.8436061  71.3829028  11.3910788  46.4313459
  71.2554822   9.9169959  46.1108420  70.7939974  12.6019090  50.4909095
  71.4212013  12.2196167  51.1046620  69.9367893  12.3833292  50.8564788
  81.1934083  23.0082065  52.0962831  81.7373987  23.6212023  51.6017786
  80.6120928  23.5661643  52.6129844  67.5705517  14.4095519  36.4227450
  67.8658958  13.5006197  36.3694504  66.6693553  14.3883258  36.1008453
  79.4791596  26.1302783  43.2277859  79.3542735  25.3292523  42.7188804
  80.1370687  26.6248976  42.7391829  71.0999764  12.4851515  42.4054999
  70.3786350  13.0987483  42.2662472  71.8893020  13.0209280  42.3271645
  81.5426504  23.9311803  44.8557409  80.5956840  23.8117154  44.7835735
  81.8909277  23.0434301  44.9383670  73.9026077   9.8205942  48.6795651
  74.4260479  10.0668238  49.4421960  73.6838411  10.6525977  48.2598788
  69.2993359  12.0909616  36.5466775  68.9706065  11.2106995  36.3641881
  69.6532729  12.0357285  37.4343165  78.5472937  23.7264519  41.0561761
  78.3997900  22.7981226  41.2369331  79.3726431  23.7484610  40.5718836
  72.4135182  12.3782586  36.9142253  72.7531254  12.9068507  36.1920861
  72.8607302  12.7162992  37.6900820  82.1507059  24.5493078  42.1426634
  83.0753607  24.3435939  42.0051085  81.9822363  24.3009479  43.0515975
  75.1078623  10.7619637  46.3645321  74.7675443   9.9627450  46.7666001
  74.4017629  11.0621348  45.7922154  75.7595094   7.8468949  44.8172644
  76.5821164   7.3729427  44.6951534  76.0033158   8.6259433  45.3171330
  74.4003329  10.8757208  35.1135546  75.1211691  11.2538461  34.6099263
  73.7768633  11.5946085  35.2170524  78.5434452  11.5802357  36.0493878
  78.7598066  12.4626995  35.7482706  78.0628519  11.1888570  35.3199520
  73.2833673  14.5388070  42.6264623  73.1378254  14.8528373  43.5188904
  72.8058877  15.1572970  42.0735521  75.1430056  11.5290618  42.6745512
  75.1291625  10.6331711  42.3377810  75.8602484  11.5361282  43.3083798
  76.9956187  11.9627958  44.7198640  76.7373965  12.8845029  44.7182970
  76.4641227  11.5658393  45.4099104  81.9402375  25.0678745  37.4988725
  82.1139253  24.5025168  36.7462578  82.4331267  25.8679640  37.3168215
  67.7579335  17.0793414  45.5652284  67.2132803  17.8553222  45.6972558
  68.6358685  17.4264219  45.4071405  74.5466952  10.4104998  37.9433082
  74.6682863   9.4821644  38.1423970  74.2568994  10.4243684  37.0311398
  77.4158142   8.0959909  41.0799802  77.4379839   8.1599242  40.1251782
  77.8326201   7.2564417  41.2740308  87.7941767  17.8315168  39.1179025
  88.2372913  17.0822493  38.7198148  86.9168277  17.8225305  38.7352757
  82.9277548  24.3845510  34.5985623  83.6228453  25.0052202  34.8172938
  83.2700698  23.5340861  34.8738001  68.5445357  16.2063311  48.4582441
  67.8027093  16.3545946  49.0447071  68.2238101  16.4671576  47.5949190
  84.8268971  21.8345215  36.1272954  85.3520295  22.1732488  35.4022274
  84.7391324  20.8992230  35.9436089  76.4889020  25.7479289  48.2562831
  76.7976146  25.5028436  49.1285530  77.2864502  25.9525927  47.7681701
  76.5109632  27.9017198  40.4868207  76.0714622  27.4093577  41.1801064
  77.2617749  27.3590166  40.2460283  68.9901971  24.0928739  40.4892835
  69.8159991  23.7932511  40.1091479  68.6396023  23.3236362  40.9382624
  73.9583504  23.4455208  42.5590509  73.3363513  22.7825913  42.2592737
  74.6288371  23.4716339  41.8764157  67.1910576  22.0115066  41.4481769
  66.3542484  21.5837240  41.2665770  67.1634221  22.2047509  42.3852560
  74.0308031  11.9236996  52.1523015  74.0796187  12.7999118  51.7700785
  74.5730546  11.3814389  51.5794658  84.5162877  22.4678119  51.4324152
  83.7258421  22.4502258  50.8928652  84.2796232  23.0066413  52.1873189
  84.6360752  19.3170585  48.7456881  84.6858757  19.1520593  49.6872403
  84.5274676  18.4497844  48.3554761  73.5197011  21.9959131  36.0348970
  73.6685131  22.6794595  35.3815642  74.3263454  21.9764221  36.5498425
  81.9264515  15.3001513  50.0616187  82.8274377  15.1607978  49.7700185
  82.0012489  15.4655968  51.0014365  76.2607320  12.6768368  48.9069374
  75.3910629  12.9701934  48.6351962  76.4966800  13.2608813  49.6276637
  86.1378949  21.7367527  48.9898902  85.8463757  22.0997507  49.8262363
  85.5251080  21.0234535  48.8112234  87.3374631  19.3020406  41.5101472
  88.1721523  19.7410211  41.6739033  87.4733760  18.8259060  40.6909718
  84.3866137  16.8600141  47.4578960  84.8620259  17.0527788  46.6497812
  83.4631703  16.9159327  47.2122344  71.2749644  18.0224309  37.0410038
  71.0295686  17.1186639  37.2390249  71.4445558  18.0241459  36.0989516
  78.9646354   8.8947985  46.4234794  79.4828298   9.6309012  46.0981283
  78.6101487   9.2011978  47.2581553  70.5445291  13.7552666  34.5396200
  69.8514536  13.8297021  33.8836236  70.2997043  12.9913010  35.0617717
  77.0192416  24.4907261  33.5060717  76.4466384  25.1097448  33.0531189
  77.5925210  25.0406623  34.0400639  83.0867806  13.7365901  45.6907266
  84.0385229  13.8363999  45.7119490  82.9171257  12.9444170  46.2005350
  81.1082186  10.8221485  45.8766667  80.5132118  11.1026497  45.1813155
  80.8231882  11.3115386  46.6483408  80.2389676  24.7744411  34.6369299
  81.1720349  24.7089973  34.8402175  80.1512889  25.6100678  34.1783832
  82.8677693  24.0910282  31.5973247  82.7891324  23.7570145  32.4909005
  83.6887360  24.5832050  31.5964719  85.5655884  16.9572021  44.8049565
  85.5332204  16.0188022  44.9909249  86.1756508  17.0356058  44.0715390
  77.4039215  15.8268074  30.8476769  78.3498320  15.6974282  30.9165188
  77.0253460  15.0882736  31.3246198  85.7150373  13.7483065  44.8507849
  85.1989421  12.9641521  44.6637777  86.5990321  13.4201781  45.0154368
  83.3761099   7.4924080  40.8103661  83.1785921   7.1839168  41.6946993
  83.9860805   8.2185719  40.9401591  91.3832434  18.0188028  43.9455602
  92.1135822  17.7573316  44.5063306  90.7739379  17.2816750  43.9857670
  89.4647731  16.1595891  44.5430053  88.7380895  16.0251855  43.9346545
  89.0495018  16.4672719  45.3486771  77.2877907  19.8785820  52.3077426
  78.2080917  20.0564419  52.5017473  77.2527490  18.9341866  52.1557126
  75.5882132  13.7518050  30.7831655  74.6813587  13.4551163  30.8594368
  75.8658113  13.4547869  29.9165941  66.5060072  15.0724414  41.2330701
  66.1862857  14.2189722  40.9405075  65.9593501  15.2872992  41.9888668
  70.2839980  17.7886855  44.9500208  70.5025990  18.7203963  44.9688241
  70.6965754  17.4294829  45.7355011  77.2044198   8.2954940  36.9375896
  76.3944926   7.9502025  37.3131142  77.8928615   7.9862484  37.5263508
  79.1334746   7.3732987  38.5600193  79.6865785   7.7928440  39.2190216
  79.3704832   6.4468735  38.6023149  75.1567845  13.3620061  54.3402957
  75.0564572  14.3114418  54.2715048  74.9389387  13.0338300  53.4679027
  74.3580917  10.6104986  30.9243634  75.2200081  10.9359884  31.1839451
  74.5431261   9.8236482  30.4116700  66.3748332  18.6927325  43.2023823
  65.6811804  18.2781278  42.6893777  67.1221323  18.7347862  42.6057242
  82.5113553   9.4833512  38.0678857  81.9312222  10.1418316  37.6856909
  82.2449486   8.6610857  37.6566274  80.9617120   8.8838570  40.2700177
  81.4616898   8.9955104  39.4614496  81.6052727   8.5799623  40.9100986
  75.0199115  16.7917199  53.1568018  74.5366197  17.5917560  53.3631907
  75.1060054  16.8025144  52.2035462  68.2885075  18.6245579  41.0789838
  68.2655763  18.7233266  40.1271721  68.5985711  19.4710730  41.4007004
  70.9472453  20.6821734  45.1936452  71.9015706  20.6505677  45.1266384
  70.7484976  20.2212358  46.0086678  71.5371835  19.2522850  47.7607250
  72.3564724  19.7466929  47.7842087  71.8108643  18.3354818  47.7324817
  81.2938431  11.6433603  37.1235205  80.4064286  11.9283253  36.9055400
  81.7092420  11.4827366  36.2762482  84.6452967  11.6680124  40.8389544
  85.4213357  12.1576576  41.1114161  83.9201101  12.0938178  41.2961414
  87.0825526  12.3807743  41.8963485  87.6770017  12.1403479  41.1856793
  87.1552110  11.6614873  42.5237021  69.3022682  26.2241354  42.2106650
  69.1677150  25.4641755  41.6444648  68.8854744  26.9482254  41.7435439
  80.4381645  21.4078277  31.2183225  81.1417495  21.6128280  31.8340881
  79.7144293  21.9755039  31.4832309  81.2679455  17.1588138  37.3385495
  81.2114656  17.6156690  36.4993128  81.8207797  16.3978823  37.1608338
  85.0784261  12.9477870  38.1635615  84.8221195  12.5474506  38.9943823
  84.4537129  13.6621664  38.0385754  89.3896599  15.6873944  40.6706906
  88.8296157  15.7567133  41.4438468  88.7840102  15.5114928  39.9506402
  72.4591808  27.1210671  42.4225093  72.3424192  28.0656103  42.3203783
  71.6384254  26.8184232  42.8110892  82.3468342  21.8460806  33.2681685
  83.1813946  21.4142005  33.0859160  82.1852685  21.6742820  34.1958580
  82.0014234  18.3492920  34.6338025  81.9463038  18.1837191  33.6926469
  81.3760290  19.0568953  34.7900214  66.7906749  13.5860984  48.4599447
  67.4365613  13.0759938  48.9486672  66.5823900  14.3229666  49.0342872
  79.3160141  20.6541832  53.9591587  80.1851301  20.8282484  53.5978222
  78.8366893  21.4736248  53.8367317  75.3110360   7.8501029  34.2123343
  75.2989030   8.7942869  34.3691614  76.2033782   7.6671174  33.9182804
  73.4846322  27.7738933  45.6381021  74.3873568  27.8062543  45.9547516
  73.2583692  26.8439384  45.6527357  75.2399924  26.5269919  42.2991100
  74.2895555  26.5271781  42.1855472  75.5432410  25.7802654  41.7827134
  71.1304240  10.7328601  52.5574461  71.9935702  10.3765406  52.7677786
  70.5569651  10.3942496  53.2449865  90.9752617  32.3630458  43.3636862
  91.6131027  32.2437205  42.6600202  90.8573460  33.3111301  43.4224814
  87.7842323  32.3157886  43.2998387  87.4460835  32.1998950  42.4118922
  88.6532092  31.9149051  43.2799393  83.6429139  34.1693362  39.2895278
  83.0794004  34.0783299  38.5211565  83.5281534  33.3493266  39.7697770
  88.2662106  33.4692737  49.2584592  88.2550747  33.0745536  48.3865096
  88.4282746  32.7358810  49.8518364  81.1893571  35.6644554  42.1279498
  81.9814863  35.3235378  41.7125797  81.4290221  35.7739529  43.0481651
  89.2228698  37.8364330  34.6009743  88.5716678  38.4218410  34.2143756
  90.0173061  38.3670525  34.6604780  83.1484325  34.9253467  34.9996877
  83.9215201  34.3782454  34.8609753  83.5009724  35.7897716  35.2111338
  84.9869368  36.2529849  48.2063776  84.6959234  37.1575480  48.0910442
  85.6226352  36.2946377  48.9207846  85.9125574  33.6306698  44.7965136
  86.5089147  33.4062720  44.0822099  85.9700546  32.8891443  45.3990584
  85.4850603  31.0846133  32.6315327  85.7376124  30.5627654  31.8698790
  84.5475162  30.9212278  32.7342010  90.5293886  30.0881911  40.4390070
  91.3156975  29.6701335  40.0880487  90.7932590  30.9928004  40.6071718
  90.7003963  35.5254762  35.1378727  90.0649796  35.5989388  35.8499631
  90.3701369  36.1148361  34.4597806  95.9302313  30.0257145  41.3423049
  96.6627485  29.4556361  41.5760878  95.1741668  29.6378745  41.7829554
  85.2046892  32.9874239  34.8339702  85.0883150  32.3119142  35.5020786
  85.3149151  32.5006613  34.0171855  87.5478432  32.4484386  38.5386391
  87.1836640  31.9215007  39.2499312  88.4045548  32.0582855  38.3652876
  93.4527733  23.7378719  45.8017657  93.1211058  24.6074130  45.5778872
  92.8573347  23.4215003  46.4811688  87.1883919  27.4774286  33.5347739
  87.3558322  28.3454522  33.9018211  86.9981089  27.6401567  32.6109029
  89.9459253  35.9391265  45.2013570  89.6459976  36.8416303  45.0929377
  89.6010312  35.6723448  46.0534723  83.3971734  32.3905062  41.2350274
  82.4722231  32.2581276  41.4427966  83.6456147  33.1699281  41.7320217
  93.3456396  28.4573805  42.8811007  92.4373274  28.3889213  42.5869768
  93.2943992  28.9345750  43.7092833  87.1673140  29.9331943  34.5194406
  87.0472766  30.3788994  35.3579887  86.4725729  30.2817261  33.9607944
  80.7580545  32.0338335  42.0694063  80.8872926  32.2872814  42.9833475
  80.0777996  32.6266043  41.7498718  84.9280032  42.7035585  38.1684538
  84.8504062  43.6543410  38.2473018  84.3241676  42.3581458  38.8259464
  87.4197262  29.8763450  50.8245904  86.6430596  30.4357371  50.8148769
  88.0587825  30.3620233  51.3460775  95.2118043  26.6590243  44.6588881
  94.5692423  26.9522776  44.0128676  94.7072971  26.5443164  45.4642078
  92.8658207  30.4053416  35.3474740  93.7776063  30.6380803  35.1722438
  92.3567854  30.9890461  34.7849819  85.6743635  32.6848904  50.3863871
  86.4158319  33.2233948  50.1098695  84.9680620  33.3115193  50.5435423
  91.1498974  34.8278044  48.9836033  91.5582330  34.3860455  48.2390665
  90.4276236  34.2530672  49.2370226  87.5030044  29.7650651  46.3569590
  88.3491239  30.1890065  46.5004239  87.4428682  29.1084275  47.0508153
  91.4727789  35.3879235  42.7388322  90.8436651  35.5524949  42.0364390
  91.0853451  35.8020844  43.5099286  95.3517021  36.3233673  40.0932686
  94.6668059  36.7032574  39.5429719  95.4360870  36.9328999  40.8264633
  90.6529490  27.4255019  48.0150764  90.4090421  28.1797080  47.4785039
  90.9289420  27.8040367  48.8498011  92.6067952  33.9693632  46.6928029
  92.8184848  34.6125392  46.0162410  92.5597701  33.1355948  46.2249959
  90.2094181  26.5811452  43.5964601  89.3478660  26.8792706  43.8881339
  90.2356616  26.7981851  42.6645634  87.0255751  35.1253643  40.0038407
  87.4894096  35.4041346  39.2143029  86.7612549  34.2237088  39.8211498
  83.9179832  34.6725125  42.9418170  84.4881189  35.1012393  42.3035655
  84.5087944  34.3907709  43.6402356  85.9624637  31.2476795  36.8127972
  86.6648680  31.6997839  37.2801898  85.6305265  30.6060614  37.4407865
  84.4104998  29.8388552  51.1879181  83.7803659  30.5204833  51.4214578
  84.3041086  29.7271634  50.2432320  79.7049971  29.5060348  42.1145106
  78.9149025  29.7617877  41.6385216  80.1961218  30.3208686  42.2197146
  93.7213780  36.8465587  44.8650386  94.5431224  36.4445774  44.5833068
  93.7176183  36.7433821  45.8166502  81.6564716  29.8704927  39.0728582
  80.8595879  29.9823622  39.5912078  81.4290308  30.2091579  38.2069473
  87.4870384  36.3949630  47.0211097  87.5514816  36.8570038  47.8569269
  86.7781308  35.7646995  47.1493407  77.9887674  29.7590838  44.5460096
  78.2395712  30.6437848  44.8117672  78.5247222  29.5795440  43.7735188
 101.8119773  33.1904336  41.2135358 101.0583482  32.6211734  41.0579362
 101.9467315  33.1567000  42.1605993  87.2018401  38.0617738  36.8890077
  87.0664076  38.9069274  37.3174925  87.7428214  38.2637016  36.1256011
  83.6885741  24.1409318  53.5504432  83.2952687  23.5875516  54.2252077
  84.5051881  24.4519896  53.9410950  80.6547799  35.5793176  37.4618002
  81.1672319  36.3736426  37.6123567  81.3070512  34.8819466  37.3951604
  82.4642683  38.6958932  39.5440756  82.6409312  39.6176897  39.3561739
  83.2599517  38.3817351  39.9735135  86.6053702  25.5567197  51.1424689
  87.3463415  26.1574350  51.0629152  86.8371625  24.8144835  50.5842732
  81.7495040  30.7423564  49.4202919  81.6348555  29.8408821  49.7210018
  80.8939558  30.9887261  49.0687735  88.8286878  38.6841304  51.0190419
  88.3850732  37.8977683  50.7011324  89.4904091  38.8720455  50.3534310
  83.5873999  40.2137106  45.5451098  84.1381424  40.0854169  44.7728092
  82.7485475  40.5131995  45.1945991  90.9268116  38.9644104  49.0471821
  90.9086591  39.7852985  48.5552090  91.8488036  38.8398180  49.2721962
  87.3841170  36.4788234  49.8895329  87.9169507  35.7176522  49.6594637
  86.8555251  36.1861886  50.6319483  90.5510865  21.5848300  45.4188971
  90.2075134  22.4749942  45.3428081  90.9189828  21.3949957  44.5558556
  78.6196716  33.9081830  38.2377573  79.4571938  34.3178839  38.0211281
  78.7974983  32.9681272  38.2077767  90.5161148  31.5756911  33.9261406
  90.0007771  32.3461516  34.1649793  90.2438456  30.9022047  34.5494467
  88.1008259  26.4206612  38.9846644  87.2449855  26.0313462  38.8052283
  88.5135210  26.4998573  38.1246430  89.6307405  23.9552955  43.3838204
  89.1272201  23.9183090  42.5706009  89.9238012  24.8645698  43.4434861
  85.8750291  24.0391685  42.3904386  86.7403288  23.8434493  42.0310275
  85.9427800  23.8102036  43.3173742  95.4895422  34.3289266  35.8614579
  94.7124865  33.9900425  35.4169741  96.1686903  34.3341889  35.1869544
  90.3047451  29.4484003  35.7521187  89.9997586  29.7630152  36.6031330
  91.2577893  29.5265423  35.7948520  88.7493883  35.6074226  37.4014141
  88.2215244  34.8726986  37.0887378  88.2481385  36.3848903  37.1554109
  93.7286729  33.8023247  42.5181187  93.0710403  34.4922508  42.6061316
  94.5327128  34.1919679  42.8615174  83.4812610  26.2693893  39.7620753
  84.0556362  26.0469074  39.0293945  84.0683593  26.3382587  40.5149354
  92.5392187  32.1567620  40.5685129  93.0524069  32.7897611  41.0706839
  93.1893411  31.5568815  40.2028489  83.8082197  28.2998354  33.7816638
  82.9719510  28.6373040  34.1025913  83.6686967  28.1647333  32.8443775
  85.7835278  23.1435142  38.4895822  85.1299690  22.8284159  37.8652437
  85.7415752  22.5210882  39.2155645  86.8946483  33.4254437  30.4049114
  85.9873545  33.1943690  30.6040263  87.3917515  32.6292056  30.5923096
  89.8014562  42.1351944  33.3245800  89.1276260  42.4383641  33.9330758
  90.1880384  42.9381024  32.9751257  89.0173018  29.6317075  42.8143470
  88.0995580  29.8532022  42.6565158  89.4333162  29.7063386  41.9555177
  89.8008066  31.0308491  37.9446150  90.5479885  31.5429888  37.6353272
  90.0699656  30.7092544  38.8050543  88.0734716  33.5267032  34.9273104
  87.1645936  33.2426064  35.0245574  88.1029800  33.9466110  34.0676411
  93.3053984  37.1373621  38.6964272  92.8516311  36.2964531  38.7529462
  92.6747950  37.7735019  39.0339052  92.2486903  28.0665607  39.9264939
  91.5109660  27.5542993  40.2575182  92.5013677  27.6265989  39.1148216
  91.7486923  38.9750118  39.6314090  92.0409897  39.5355175  38.9126455
  92.2585544  39.2678679  40.3867249  92.3498531  20.8441859  40.5206708
  92.6557407  19.9839222  40.2332623  93.0751135  21.4359479  40.3205702
  78.6422887  31.2472546  38.9088306  78.4447286  30.6541906  38.1839373
  78.0869551  30.9424756  39.6264245  86.6219610  31.1395652  41.0282899
  86.6768220  30.1869489  40.9525376  85.8110812  31.2955091  41.5124198
  87.7710804  35.0675775  32.2661183  87.3330234  34.3511634  31.8066820
  88.5121245  35.2951890  31.7046274  84.5611970  29.7572712  38.7873278
  83.7479836  30.0566882  39.1938470  85.0570964  29.3628401  39.5047761
  86.7120548  39.7530469  40.7207543  86.6696727  39.9791315  39.7916075
  87.6283247  39.5193843  40.8693344  90.1586182  30.2214536  47.6188172
  90.5135570  30.4486009  48.4782638  90.8058313  30.5532913  46.9965428
  95.8883919  33.3432972  38.3237501  95.7501817  33.5334568  37.3958690
  95.5320138  34.1052355  38.7805552  84.0526045  27.3291067  44.4034513
  84.6925424  27.1879826  43.7057477  83.2203576  27.0425581  44.0273115
  95.9153298  35.4109499  43.3348773  96.3489805  35.3184788  44.1831827
  96.6284879  35.3867000  42.6968789  84.8286349  36.6293498  40.5169506
  85.6226947  36.1343818  40.3152081  84.1178041  36.1011361  40.1537211
  89.6481193  39.0111593  44.8681873  89.7018216  39.5802530  45.6359589
  88.7795975  39.1813478  44.5035911  81.1369112  30.7736580  36.5929258
  80.2066700  30.7121035  36.8099221  81.2326584  30.2512532  35.7965900
  81.0554661  27.2991392  39.1807500  81.3161479  28.2136726  39.0716661
  81.8771834  26.8315835  39.3304113  82.5279587  28.7129150  46.3506325
  83.2002640  28.5046512  45.7018974  81.7009373  28.5151236  45.9111557
  96.7768848  35.4533200  45.8681658  96.9704738  36.3579010  46.1140933
  96.6769466  34.9940619  46.7020243  88.4305159  25.3391090  48.3671986
  87.7833074  26.0381040  48.2736462  89.2006174  25.7727234  48.7348234
  91.8383957  35.6039943  51.4422539  91.6869463  35.3750494  50.5252622
  91.8288636  36.5610544  51.4553884  88.6069293  33.1771855  46.4268805
  89.5361353  33.3283015  46.2537773  88.1860323  33.2655876  45.5717452
  87.4057625  37.2022520  44.1967343  87.2668711  36.8341304  45.0693281
  86.6172221  37.7170159  44.0251301  88.0005777  42.3031616  35.5392879
  88.1757533  41.8319659  36.3538502  87.3138565  42.9297382  35.7674140
  88.9562840  36.5804122  41.5856181  88.6212673  36.5404892  42.4813831
  88.4566786  35.9148838  41.1126591  82.9307084  31.9871753  47.1108762
  82.7926882  31.2551991  47.7120301  83.8412007  31.8980653  46.8292950
  91.8922032  33.9260157  31.8593240  91.2751202  33.2006985  31.7626293
  91.4238520  34.6869517  31.5160315  85.5589385  31.6991712  46.5992441
  86.2689003  31.0584904  46.5579060  85.5158693  31.9504607  47.5218622
  93.5476163  38.6359065  49.5199021  93.4888710  37.9518285  48.8529604
  93.9495682  39.3778055  49.0679647  84.2718319  28.6856930  48.4188081
  83.7355676  28.2347668  49.0709677  83.6835027  28.8202839  47.6758545
  82.5666862  45.4520979  42.3132740  82.8063460  46.0839503  42.9911758
  81.7236059  45.1009019  42.5998099  83.6820578  28.1445581  30.9814545
  82.8050044  28.0234382  30.6176791  84.1578331  27.3531659  30.7293433
  93.5493571  36.5998649  47.7513000  92.6620349  36.2624571  47.8739399
  94.1192122  35.8681680  47.9881766  75.2022718  32.9322741  41.0756052
  75.8893758  32.6184471  40.4877067  75.0470846  33.8364105  40.8023303
  80.0057440  27.8212937  45.5041075  79.9215629  27.2138607  44.7691485
  79.1840146  28.3121956  45.5050572  87.0794724  41.2600101  44.7174244
  87.0064896  42.0655073  45.2293548  86.6372117  41.4592067  43.8922265
  86.8684504  40.4971871  38.2277065  86.0852026  41.0393552  38.3215290
  87.5677249  41.0145851  38.6271306  90.1781154  26.3066501  40.8711270
  90.6749853  25.5536463  40.5512341  89.4068135  26.3430818  40.3054480
  98.0310911  32.0106866  42.5129562  98.0200787  32.8931582  42.1423495
  97.1628291  31.6578417  42.3184099  89.5393408  41.1586935  46.8732402
  90.2521380  41.7934400  46.8008304  89.0483436  41.2550801  46.0572404
  91.2610934  35.0638188  38.4449694  90.3267213  35.1839651  38.2754398
  91.4387603  34.1610655  38.1809704  86.7616123  28.4483884  40.5982955
  86.3913910  27.8954924  41.2863861  87.2575215  27.8442017  40.0457955
  94.6483486  30.9055507  38.9799728  95.1143938  31.7383499  38.9060031
  95.0990986  30.4400489  39.6844986  84.5905321  38.9081379  47.6937973
  85.2914781  39.5417862  47.8467367  84.1200436  39.2496110  46.9333612
  92.7159717  37.2499329  35.9785880  92.9919561  37.1355923  36.8879754
  91.8464216  36.8516814  35.9398053  92.6200149  23.2736094  43.0190629
  91.7063228  23.5040321  43.1872836  93.0493250  23.3574538  43.8704662
  92.3906607  31.4625986  45.5190523  91.7378057  31.7101894  44.8642976
  92.7686987  30.6490125  45.1853001  89.3513781  41.4985680  39.6218694
  89.5336175  40.6807336  40.0846446  90.1746767  41.7153372  39.1843584
  89.6855946  40.4253865  36.8833742  90.2143713  39.9146319  36.2703904
  89.9484166  40.1096395  37.7479275  88.4394180  32.2045797  52.0056560
  87.7634817  32.1039927  52.6758936  89.2621814  32.0485011  52.4692558
  80.1873039  38.4417734  44.6269076  80.7726476  37.6961422  44.7596980
  79.9897878  38.7521691  45.5105740  83.0411694  41.4768981  39.6431518
  82.3722070  41.9615109  39.1595558  82.9024564  41.7238202  40.5574897
  74.7790694  31.0123334  43.3473519  74.8174793  30.4786925  44.1410637
  74.2730987  30.4858540  42.7284496  87.1816963  43.5112725  46.2414176
  87.7335271  43.6744346  47.0063262  87.5223156  44.1017163  45.5694201
  82.1581456  25.8587875  46.8436061  82.2222783  26.7202706  46.4313459
  82.0948576  25.2461876  46.1108420  81.6333729  27.9311007  50.4909095
  82.2605768  27.5488085  51.1046620  80.7761648  27.7125209  50.8564788
  92.0327837  38.3373982  52.0962831  92.5767741  38.9503941  51.6017786
  91.4514682  38.8953561  52.6129844  78.4099271  29.7387436  36.4227450
  78.7052713  28.8298115  36.3694504  77.5087307  29.7175176  36.1008453
  90.3185350  41.4594700  43.2277859  90.1936490  40.6584440  42.7188804
  90.9764441  41.9540894  42.7391829  81.9393518  27.8143433  42.4054999
  81.2180104  28.4279401  42.2662472  82.7286774  28.3501198  42.3271645
  92.3820259  39.2603721  44.8557409  91.4350594  39.1409072  44.7835735
  92.7303032  38.3726219  44.9383670  84.7419832  25.1497859  48.6795651
  85.2654234  25.3960156  49.4421960  84.5232165  25.9817894  48.2598788
  80.1387113  27.4201534  36.5466775  79.8099819  26.5398913  36.3641881
  80.4926484  27.3649203  37.4343165  89.3866692  39.0556437  41.0561761
  89.2391654  38.1273144  41.2369331  90.2120185  39.0776527  40.5718836
  83.2528936  27.7074504  36.9142253  83.5925009  28.2360425  36.1920861
  83.7001057  28.0454910  37.6900820  92.9900814  39.8784995  42.1426634
  93.9147361  39.6727857  42.0051085  92.8216117  39.6301397  43.0515975
  85.9472377  26.0911555  46.3645321  85.6069197  25.2919368  46.7666001
  85.2411383  26.3913265  45.7922154  86.5988849  23.1760867  44.8172644
  87.4214918  22.7021345  44.6951534  86.8426912  23.9551351  45.3171330
  85.2397083  26.2049125  35.1135546  85.9605446  26.5830378  34.6099263
  84.6162387  26.9238002  35.2170524  89.3828206  26.9094274  36.0493878
  89.5991821  27.7918912  35.7482706  88.9022273  26.5180488  35.3199520
  84.1227428  29.8679988  42.6264623  83.9772008  30.1820291  43.5188904
  83.6452631  30.4864888  42.0735521  85.9823810  26.8582536  42.6745512
  85.9685379  25.9623629  42.3377810  86.6996239  26.8653199  43.3083798
  87.8349941  27.2919876  44.7198640  87.5767719  28.2136946  44.7182970
  87.3034982  26.8950310  45.4099104  92.7796130  40.3970663  37.4988725
  92.9533007  39.8317085  36.7462578  93.2725021  41.1971558  37.3168215
  78.5973090  32.4085332  45.5652284  78.0526558  33.1845140  45.6972558
  79.4752440  32.7556136  45.4071405  85.3860706  25.7396916  37.9433082
  85.5076618  24.8113562  38.1423970  85.0962749  25.7535602  37.0311398
  88.2551897  23.4251826  41.0799802  88.2773594  23.4891159  40.1251782
  88.6719956  22.5856335  41.2740308  98.6335521  33.1607086  39.1179025
  99.0766667  32.4114411  38.7198148  97.7562031  33.1517222  38.7352757
  93.7671302  39.7137427  34.5985623  94.4622207  40.3344120  34.8172938
  94.1094453  38.8632779  34.8738001  79.3839112  31.5355228  48.4582441
  78.6420848  31.6837864  49.0447071  79.0631856  31.7963494  47.5949190
  95.6662726  37.1637133  36.1272954  96.1914050  37.5024406  35.4022274
  95.5785078  36.2284148  35.9436089  87.3282774  41.0771206  48.2562831
  87.6369901  40.8320353  49.1285530  88.1258256  41.2817845  47.7681701
  87.3503386  43.2309116  40.4868207  86.9108377  42.7385495  41.1801064
  88.1011503  42.6882084  40.2460283  79.8295725  39.4220657  40.4892835
  80.6553745  39.1224429  40.1091479  79.4789777  38.6528279  40.9382624
  84.7977258  38.7747125  42.5590509  84.1757268  38.1117830  42.2592737
  85.4682125  38.8008257  41.8764157  78.0304330  37.3406983  41.4481769
  77.1936239  36.9129158  41.2665770  78.0027976  37.5339427  42.3852560
  84.8701786  27.2528913  52.1523015  84.9189941  28.1291036  51.7700785
  85.4124300  26.7106306  51.5794658  95.3556632  37.7970036  51.4324152
  94.5652175  37.7794175  50.8928652  95.1189986  38.3358330  52.1873189
  95.4754507  34.6462503  48.7456881  95.5252512  34.4812510  49.6872403
  95.3668430  33.7789762  48.3554761  84.3590765  37.3251049  36.0348970
  84.5078886  38.0086513  35.3815642  85.1657209  37.3056139  36.5498425
  92.7658269  30.6293431  50.0616187  93.6668132  30.4899896  49.7700185
  92.8406244  30.7947886  51.0014365  87.1001074  28.0060286  48.9069374
  86.2304384  28.2993852  48.6351962  87.3360555  28.5900731  49.6276637
  96.9772704  37.0659444  48.9898902  96.6857512  37.4289425  49.8262363
  96.3644835  36.3526453  48.8112234  98.1768386  34.6312324  41.5101472
  99.0115277  35.0702128  41.6739033  98.3127515  34.1550977  40.6909718
  95.2259892  32.1892059  47.4578960  95.7014013  32.3819705  46.6497812
  94.3025457  32.2451245  47.2122344  82.1143398  33.3516226  37.0410038
  81.8689440  32.4478556  37.2390249  82.2839313  33.3533377  36.0989516
  89.8040108  24.2239903  46.4234794  90.3222052  24.9600929  46.0981283
  89.4495241  24.5303896  47.2581553  81.3839046  29.0844584  34.5396200
  80.6908291  29.1588939  33.8836236  81.1390798  28.3204927  35.0617717
  90.0552702  20.6440185  41.9435691  90.3354456  19.9763374  42.5696117
  90.8403309  20.8369281  41.4310355  87.8586171  39.8199179  33.5060717
  87.2860138  40.4389366  33.0531189  88.4318965  40.3698541  34.0400639
  93.9261561  29.0657819  45.6907266  94.8778984  29.1655917  45.7119490
  93.7565011  28.2736088  46.2005350  91.9475940  26.1513402  45.8766667
  91.3525872  26.4318415  45.1813155  91.6625637  26.6407303  46.6483408
  91.0783431  40.1036329  34.6369299  92.0114104  40.0381891  34.8402175
  90.9906644  40.9392596  34.1783832  93.7071447  39.4202199  31.5973247
  93.6285079  39.0862063  32.4909005  94.5281114  39.9123967  31.5964719
  96.4049639  32.2863939  44.8049565  96.3725959  31.3479940  44.9909249
  97.0150262  32.3647975  44.0715390  88.2432969  31.1559992  30.8476769
  89.1892074  31.0266200  30.9165188  87.8647214  30.4174654  31.3246198
  96.5544127  29.0774982  44.8507849  96.0383176  28.2933439  44.6637777
  97.4384076  28.7493699  45.0154368  94.2154854  22.8215998  40.8103661
  94.0179675  22.5131086  41.6946993  94.8254560  23.5477637  40.9401591
 102.2226188  33.3479946  43.9455602 102.9529577  33.0865234  44.5063306
 101.6133134  32.6108668  43.9857670 100.3041486  31.4887808  44.5430053
  99.5774649  31.3543773  43.9346545  99.8888772  31.7964637  45.3486771
  88.1271662  35.2077738  52.3077426  89.0474671  35.3856337  52.5017473
  88.0921245  34.2633783  52.1557126  86.4275887  29.0809968  30.7831655
  85.5207342  28.7843081  30.8594368  86.7051868  28.7839786  29.9165941
  77.3453827  30.4016332  41.2330701  77.0256611  29.5481640  40.9405075
  76.7987255  30.6164910  41.9888668  81.1233734  33.1178773  44.9500208
  81.3419744  34.0495880  44.9688241  81.5359508  32.7586747  45.7355011
  88.0437952  23.6246858  36.9375896  87.2338681  23.2793943  37.3131142
  88.7322369  23.3154402  37.5263508  89.9728501  22.7024905  38.5600193
  90.5259539  23.1220358  39.2190216  90.2098587  21.7760653  38.6023149
  85.9961600  28.6911978  54.3402957  85.8958327  29.6406335  54.2715048
  85.7783142  28.3630217  53.4679027  85.1974671  25.9396903  30.9243634
  86.0593835  26.2651802  31.1839451  85.3825015  25.1528399  30.4116700
  77.2142087  34.0219243  43.2023823  76.5205558  33.6073196  42.6893777
  77.9615078  34.0639780  42.6057242  93.3507308  24.8125430  38.0678857
  92.7705977  25.4710234  37.6856909  93.0843240  23.9902774  37.6566274
  91.8010874  24.2130488  40.2700177  92.3010652  24.3247022  39.4614496
  92.4446482  23.9091540  40.9100986  85.8592870  32.1209117  53.1568018
  85.3759952  32.9209477  53.3631907  85.9453809  32.1317062  52.2035462
  79.1278829  33.9537497  41.0789838  79.1049518  34.0525184  40.1271721
  79.4379466  34.8002648  41.4007004  81.7866207  36.0113652  45.1936452
  82.7409461  35.9797594  45.1266384  81.5878731  35.5504276  46.0086678
  82.3765589  34.5814768  47.7607250  83.1958478  35.0758847  47.7842087
  82.6502397  33.6646736  47.7324817  92.1332186  26.9725520  37.1235205
  91.2458041  27.2575171  36.9055400  92.5486175  26.8119284  36.2762482
  95.4846722  26.9972041  40.8389544  96.2607112  27.4868494  41.1114161
  94.7594856  27.4230095  41.2961414  97.9219280  27.7099660  41.8963485
  98.5163771  27.4695396  41.1856793  97.9945864  26.9906791  42.5237021
  80.1416436  41.5533271  42.2106650  80.0070904  40.7933672  41.6444648
  79.7248498  42.2774171  41.7435439  91.2775399  36.7370195  31.2183225
  91.9811249  36.9420197  31.8340881  90.5538048  37.3046957  31.4832309
  92.1073209  32.4880056  37.3385495  92.0508411  32.9448608  36.4993128
  92.6601552  31.7270741  37.1608338  95.9178015  28.2769788  38.1635615
  95.6614950  27.8766424  38.9943823  95.2930883  28.9913582  38.0385754
 100.2290353  31.0165861  40.6706906  99.6689911  31.0859051  41.4438468
  99.6233857  30.8406846  39.9506402  83.2985562  42.4502588  42.4225093
  83.1817946  43.3948021  42.3203783  82.4778008  42.1476150  42.8110892
  93.1862097  37.1752724  33.2681685  94.0207700  36.7433923  33.0859160
  93.0246439  37.0034738  34.1958580  92.8407989  33.6784837  34.6338025
  92.7856793  33.5129109  33.6926469  92.2154044  34.3860870  34.7900214
  77.6300504  28.9152902  48.4599447  78.2759367  28.4051856  48.9486672
  77.4217655  29.6521583  49.0342872  90.1553896  35.9833749  53.9591587
  91.0245056  36.1574402  53.5978222  89.6760647  36.8028166  53.8367317
  86.1504114  23.1792946  34.2123343  86.1382784  24.1234786  34.3691614
  87.0427536  22.9963092  33.9182804  84.3240076  43.1030850  45.6381021
  85.2267323  43.1354461  45.9547516  84.0977446  42.1731301  45.6527357
  86.0793678  41.8561837  42.2991100  85.1289309  41.8563698  42.1855472
  86.3826164  41.1094571  41.7827134  89.9656234  19.7735723  38.4669280
  89.1988629  19.2194210  38.6125962  90.3766939  19.8457592  39.3283431
  81.9697995  26.0620519  52.5574461  82.8329456  25.7057324  52.7677786
  81.3963405  25.7234414  53.2449865 101.8146372  47.6922375  43.3636862
 102.4524782  47.5729123  42.6600202 101.6967215  48.6403219  43.4224814
  98.6236078  47.6449803  43.2998387  98.2854589  47.5290868  42.4118922
  99.4925846  47.2440968  43.2799393  94.4822894  49.4985280  39.2895278
  93.9187759  49.4075217  38.5211565  94.3675289  48.6785184  39.7697770
  99.1055861  48.7984655  49.2584592  99.0944502  48.4037453  48.3865096
  99.2676500  48.0650728  49.8518364  92.0287326  50.9936471  42.1279498
  92.8208617  50.6527296  41.7125797  92.2683976  51.1031446  43.0481651
 100.0622452  53.1656247  34.6009743  99.4110432  53.7510328  34.2143756
 100.8566815  53.6962442  34.6604780  93.9878079  50.2545385  34.9996877
  94.7608955  49.7074372  34.8609753  94.3403478  51.1189634  35.2111338
  95.8263122  51.5821767  48.2063776  95.5352988  52.4867398  48.0910442
  96.4620106  51.6238294  48.9207846  96.7519329  48.9598615  44.7965136
  97.3482901  48.7354638  44.0822099  96.8094300  48.2183361  45.3990584
  96.3244357  46.4138051  32.6315327  96.5769878  45.8919572  31.8698790
  95.3868916  46.2504196  32.7342010 101.3687640  45.4173829  40.4390070
 102.1550729  44.9993252  40.0880487 101.6326344  46.3219921  40.6071718
 101.5397717  50.8546679  35.1378727 100.9043550  50.9281306  35.8499631
 101.2095124  51.4440278  34.4597806 106.7696067  45.3549062  41.3423049
 107.5021239  44.7848279  41.5760878 106.0135423  44.9670663  41.7829554
  96.0440646  48.3166157  34.8339702  95.9276904  47.6411060  35.5020786
  96.1542906  47.8298531  34.0171855  98.3872187  47.7776304  38.5386391
  98.0230394  47.2506925  39.2499312  99.2439303  47.3874773  38.3652876
 104.2921488  39.0670636  45.8017657 103.9604812  39.9366047  45.5778872
 103.6967101  38.7506920  46.4811688  98.0277674  42.8066203  33.5347739
  98.1952076  43.6746440  33.9018211  97.8374843  42.9693485  32.6109029
 100.7853007  51.2683182  45.2013570 100.4853730  52.1708221  45.0929377
 100.4404067  51.0015366  46.0534723  94.2365489  47.7196979  41.2350274
  93.3115985  47.5873193  41.4427966  94.4849902  48.4991198  41.7320217
 104.1850151  43.7865723  42.8811007 103.2767028  43.7181131  42.5869768
 104.1337747  44.2637667  43.7092833  98.0066895  45.2623861  34.5194406
  97.8866520  45.7080912  35.3579887  97.3119483  45.6109179  33.9607944
  91.5974300  47.3630253  42.0694063  91.7266681  47.6164732  42.9833475
  90.9171751  47.9557961  41.7498718  95.7673787  58.0327503  38.1684538
  95.6897817  58.9835328  38.2473018  95.1635431  57.6873375  38.8259464
  98.2591017  45.2055368  50.8245904  97.4824351  45.7649288  50.8148769
  98.8981580  45.6912151  51.3460775 106.0511797  41.9882161  44.6588881
 105.4086178  42.2814694  44.0128676 105.5466726  41.8735081  45.4642078
 103.7051961  45.7345334  35.3474740 104.6169817  45.9672721  35.1722438
 103.1961608  46.3182378  34.7849819  96.5137389  48.0140821  50.3863871
  97.2552073  48.5525865  50.1098695  95.8074374  48.6407110  50.5435423
 101.9892729  50.1569962  48.9836033 102.3976085  49.7152372  48.2390665
 101.2669990  49.5822589  49.2370226  98.3423799  45.0942569  46.3569590
  99.1884994  45.5181982  46.5004239  98.2822436  44.4376193  47.0508153
 102.3121543  50.7171153  42.7388322 101.6830406  50.8816867  42.0364390
 101.9247205  51.1312762  43.5099286 106.1910775  51.6525590  40.0932686
 105.5061813  52.0324492  39.5429719 106.2754625  52.2620917  40.8264633
 101.4923244  42.7546937  48.0150764 101.2484176  43.5088998  47.4785039
 101.7683175  43.1332285  48.8498011 103.4461707  49.2985549  46.6928029
 103.6578602  49.9417309  46.0162410 103.3991455  48.4647866  46.2249959
 101.0487936  41.9103370  43.5964601 100.1872415  42.2084624  43.8881339
 101.0750370  42.1273769  42.6645634  97.8649505  50.4545561  40.0038407
  98.3287851  50.7333264  39.2143029  97.6006303  49.5529005  39.8211498
  94.7573586  50.0017042  42.9418170  95.3274943  50.4304311  42.3035655
  95.3481698  49.7199627  43.6402356  96.8018391  46.5768713  36.8127972
  97.5042435  47.0289757  37.2801898  96.4699020  45.9352532  37.4407865
  95.2498753  45.1680470  51.1879181  94.6197413  45.8496751  51.4214578
  95.1434841  45.0563551  50.2432320  90.5443725  44.8352266  42.1145106
  89.7542779  45.0909794  41.6385216  91.0354973  45.6500604  42.2197146
 104.5607535  52.1757505  44.8650386 105.3824978  51.7737692  44.5833068
 104.5569938  52.0725739  45.8166502  92.4958471  45.1996845  39.0728582
  91.6989634  45.3115539  39.5912078  92.2684063  45.5383497  38.2069473
  98.3264138  51.7241548  47.0211097  98.3908571  52.1861955  47.8569269
  97.6175062  51.0938913  47.1493407  88.8281428  45.0882756  44.5460096
  89.0789467  45.9729766  44.8117672  89.3640977  44.9087358  43.7735188
  98.0412156  53.3909656  36.8890077  97.9057831  54.2361191  37.3174925
  98.5821968  53.5928933  36.1256011  94.5279495  39.4701235  53.5504432
  94.1346441  38.9167434  54.2252077  95.3445636  39.7811814  53.9410950
  91.4941553  50.9085094  37.4618002  92.0066074  51.7028344  37.6123567
  92.1464266  50.2111384  37.3951604  93.3036438  54.0250850  39.5440756
  93.4803066  54.9468815  39.3561739  94.0993271  53.7109269  39.9735135
  97.4447456  40.8859115  51.1424689  98.1857170  41.4866268  51.0629152
  97.6765379  40.1436752  50.5842732  92.5888794  46.0715482  49.4202919
  92.4742310  45.1700739  49.7210018  91.7333312  46.3179179  49.0687735
  99.6680632  54.0133222  51.0190419  99.2244486  53.2269601  50.7011324
 100.3297846  54.2012373  50.3534310  94.4267753  55.5429024  45.5451098
  94.9775179  55.4146087  44.7728092  93.5879229  55.8423913  45.1945991
 101.7661870  54.2936022  49.0471821 101.7480346  55.1144903  48.5552090
 102.6881790  54.1690097  49.2721962  98.2234924  51.8080152  49.8895329
  98.7563261  51.0468440  49.6594637  97.6949006  51.5153803  50.6319483
 101.3904619  36.9140218  45.4188971 101.0468889  37.8041859  45.3428081
 101.7583582  36.7241875  44.5558556  89.4590470  49.2373748  38.2377573
  90.2965692  49.6470756  38.0211281  89.6368738  48.2973190  38.2077767
 101.3554902  46.9048829  33.9261406 100.8401526  47.6753433  34.1649793
 101.0832211  46.2313965  34.5494467  98.9402013  41.7498529  38.9846644
  98.0843610  41.3605380  38.8052283  99.3528965  41.8290490  38.1246430
 100.4701160  39.2844873  43.3838204  99.9665955  39.2475008  42.5706009
 100.7631767  40.1937615  43.4434861  96.7144046  39.3683602  42.3904386
  97.5797042  39.1726411  42.0310275  96.7821555  39.1393954  43.3173742
 106.3289176  49.6581183  35.8614579 105.5518619  49.3192343  35.4169741
 107.0080657  49.6633806  35.1869544 101.1441205  44.7775921  35.7521187
 100.8391341  45.0922070  36.6031330 102.0971647  44.8557341  35.7948520
  99.5887637  50.9366144  37.4014141  99.0608999  50.2018904  37.0887378
  99.0875140  51.7140820  37.1554109 104.5680483  49.1315165  42.5181187
 103.9104158  49.8214426  42.6061316 105.3720882  49.5211596  42.8615174
  94.3206365  41.5985810  39.7620753  94.8950117  41.3760992  39.0293945
  94.9077347  41.6674505  40.5149354 103.3785942  47.4859537  40.5685129
 103.8917824  48.1189529  41.0706839 104.0287166  46.8860733  40.2028489
  94.6475952  43.6290271  33.7816638  93.8113264  43.9664958  34.1025913
  94.5080722  43.4939251  32.8443775  96.6229032  38.4727059  38.4895822
  95.9693445  38.1576076  37.8652437  96.5809507  37.8502800  39.2155645
  97.7340237  48.7546354  30.4049114  96.8267299  48.5235608  30.6040263
  98.2311269  47.9583974  30.5923096 100.6408316  57.4643861  33.3245800
  99.9670015  57.7675558  33.9330758 101.0274138  58.2672942  32.9751257
  99.8566773  44.9608993  42.8143470  98.9389334  45.1823940  42.6565158
 100.2726916  45.0355303  41.9555177 100.6401821  46.3600408  37.9446150
 101.3873640  46.8721806  37.6353272 100.9093410  46.0384461  38.8050543
  98.9128471  48.8558949  34.9273104  98.0039690  48.5717982  35.0245574
  98.9423555  49.2758028  34.0676411 104.1447738  52.4665539  38.6964272
 103.6910065  51.6256449  38.7529462 103.5141705  53.1026937  39.0339052
 103.0880658  43.3957525  39.9264939 102.3503415  42.8834911  40.2575182
 103.3407431  42.9557906  39.1148216 102.5880677  54.3042035  39.6314090
 102.8803652  54.8647092  38.9126455 103.0979298  54.5970596  40.3867249
 103.1892285  36.1733777  40.5206708 103.4951162  35.3131140  40.2332623
 103.9144890  36.7651397  40.3205702  89.4816641  46.5764463  38.9088306
  89.2841041  45.9833824  38.1839373  88.9263305  46.2716673  39.6264245
  97.4613365  46.4687570  41.0282899  97.5161975  45.5161406  40.9525376
  96.6504567  46.6247009  41.5124198  98.6104559  50.3967693  32.2661183
  98.1723989  49.6803552  31.8066820  99.3514999  50.6243808  31.7046274
  95.4005725  45.0864630  38.7873278  94.5873590  45.3858800  39.1938470
  95.8964719  44.6920318  39.5047761  97.5514303  55.0822386  40.7207543
  97.5090481  55.3083233  39.7916075  98.4677001  54.8485761  40.8693344
 100.9979936  45.5506454  47.6188172 101.3529324  45.7777927  48.4782638
 101.6452068  45.8824831  46.9965428 106.7277673  48.6724890  38.3237501
 106.5895572  48.8626486  37.3958690 106.3713892  49.4344273  38.7805552
  94.8919800  42.6582985  44.4034513  95.5319179  42.5171744  43.7057477
  94.0597330  42.3717498  44.0273115 106.7547053  50.7401417  43.3348773
 107.1883560  50.6476706  44.1831827 107.4678634  50.7158917  42.6968789
  95.6680103  51.9585415  40.5169506  96.4620702  51.4635736  40.3152081
  94.9571796  51.4303279  40.1537211 100.4874948  54.3403511  44.8681873
 100.5411970  54.9094447  45.6359589  99.6189729  54.5105396  44.5035911
  91.9762867  46.1028497  36.5929258  91.0460455  46.0412953  36.8099221
  92.0720339  45.5804450  35.7965900  91.8948416  42.6283310  39.1807500
  92.1555233  43.5428643  39.0716661  92.7165588  42.1607753  39.3304113
  93.3673341  44.0421067  46.3506325  94.0396395  43.8338429  45.7018974
  92.5403128  43.8443153  45.9111557 107.6162603  50.7825118  45.8681658
 107.8098493  51.6870928  46.1140933 107.5163221  50.3232537  46.7020243
  99.2698913  40.6683008  48.3671986  98.6226828  41.3672958  48.2736462
 100.0399929  41.1019152  48.7348234 102.6777711  50.9331860  51.4422539
 102.5263218  50.7042412  50.5252622 102.6682391  51.8902462  51.4553884
  99.4463048  48.5063773  46.4268805 100.3755108  48.6574933  46.2537773
  99.0254078  48.5947794  45.5717452  98.2451379  52.5314437  44.1967343
  98.1062465  52.1633222  45.0693281  97.4565976  53.0462077  44.0251301
  98.8399531  57.6323534  35.5392879  99.0151287  57.1611577  36.3538502
  98.1532319  58.2589300  35.7674140  99.7956595  51.9096040  41.5856181
  99.4606427  51.8696810  42.4813831  99.2960540  51.2440756  41.1126591
  93.7700839  47.3163670  47.1108762  93.6320636  46.5843909  47.7120301
  94.6805762  47.2272570  46.8292950 102.7315786  49.2552074  31.8593240
 102.1144957  48.5298903  31.7626293 102.2632275  50.0161435  31.5160315
  96.3983139  47.0283630  46.5992441  97.1082758  46.3876822  46.5579060
  96.3552447  47.2796524  47.5218622 104.3869918  53.9650983  49.5199021
 104.3282464  53.2810203  48.8529604 104.7889436  54.7069973  49.0679647
  95.1112073  44.0148847  48.4188081  94.5749430  43.5639586  49.0709677
  94.5228782  44.1494756  47.6758545  93.4060617  60.7812897  42.3132740
  93.6457215  61.4131421  42.9911758  92.5629813  60.4300937  42.5998099
  94.5214332  43.4737499  30.9814545  93.6443798  43.3526300  30.6176791
  94.9972085  42.6823577  30.7293433 104.3887325  51.9290567  47.7513000
 103.5014104  51.5916489  47.8739399 104.9585876  51.1973598  47.9881766
  86.0416472  48.2614659  41.0756052  86.7287512  47.9476389  40.4877067
  85.8864601  49.1656023  40.8023303  90.8451194  43.1504855  45.5041075
  90.7609383  42.5430525  44.7691485  90.0233901  43.6413873  45.5050572
  97.9188479  56.5892019  44.7174244  97.8458650  57.3946991  45.2293548
  97.4765872  56.7883985  43.8922265  97.7078258  55.8263789  38.2277065
  96.9245780  56.3685469  38.3215290  98.4071003  56.3437769  38.6271306
 101.0174908  41.6358419  40.8711270 101.5143608  40.8828381  40.5512341
 100.2461890  41.6722735  40.3054480 108.8704666  47.3398784  42.5129562
 108.8594542  48.2223500  42.1423495 108.0022045  46.9870335  42.3184099
 100.3787162  56.4878853  46.8732402 101.0915134  57.1226318  46.8008304
  99.8877191  56.5842719  46.0572404 102.1004689  50.3930106  38.4449694
 101.1660968  50.5131568  38.2754398 102.2781357  49.4902573  38.1809704
  97.6009877  43.7775802  40.5982955  97.2307665  43.2246842  41.2863861
  98.0968969  43.1733935  40.0457955 105.4877240  46.2347425  38.9799728
 105.9537693  47.0675417  38.9060031 105.9384741  45.7692407  39.6844986
  95.4299076  54.2373297  47.6937973  96.1308535  54.8709780  47.8467367
  94.9594191  54.5788028  46.9333612 103.5553471  52.5791246  35.9785880
 103.8313315  52.4647841  36.8879754 102.6857970  52.1808731  35.9398053
 103.4593903  38.6028012  43.0190629 102.5456983  38.8332239  43.1872836
 103.8887005  38.6866456  43.8704662 103.2300362  46.7917904  45.5190523
 102.5771812  47.0393812  44.8642976 103.6080741  45.9782042  45.1853001
 100.1907535  56.8277597  39.6218694 100.3729930  56.0099253  40.0846446
 101.0140521  57.0445290  39.1843584 100.5249701  55.7545782  36.8833742
 101.0537467  55.2438237  36.2703904 100.7877921  55.4388313  37.7479275
  99.2787935  47.5337715  52.0056560  98.6028572  47.4331844  52.6758936
 100.1015568  47.3776929  52.4692558  91.0266794  53.7709652  44.6269076
  91.6120230  53.0253340  44.7596980  90.8291632  54.0813608  45.5105740
  93.8805449  56.8060899  39.6431518  93.2115824  57.2907027  39.1595558
  93.7418319  57.0530120  40.5574897  85.6184448  46.3415252  43.3473519
  85.6568548  45.8078843  44.1410637  85.1124741  45.8150457  42.7284496
  98.0210717  58.8404643  46.2414176  98.5729025  59.0036264  47.0063262
  98.3616911  59.4309080  45.5694201  92.9975211  41.1879792  46.8436061
  93.0616537  42.0494623  46.4313459  92.9342331  40.5753794  46.1108420
  92.4727483  43.2602925  50.4909095  93.0999522  42.8780002  51.1046620
  91.6155402  43.0417127  50.8564788 102.8721592  53.6665900  52.0962831
 103.4161496  54.2795858  51.6017786 102.2908437  54.2245479  52.6129844
  89.2493026  45.0679354  36.4227450  89.5446467  44.1590032  36.3694504
  88.3481062  45.0467093  36.1008453 101.1579105  56.7886618  43.2277859
 101.0330244  55.9876358  42.7188804 101.8158196  57.2832811  42.7391829
  92.7787273  43.1435351  42.4054999  92.0573859  43.7571318  42.2662472
  93.5680529  43.6793115  42.3271645 103.2214013  54.5895638  44.8557409
 102.2744349  54.4700989  44.7835735 103.5696786  53.7018136  44.9383670
  95.5813586  40.4789777  48.6795651  96.1047988  40.7252074  49.4421960
  95.3625920  41.3109812  48.2598788  90.9780868  42.7493452  36.5466775
  90.6493574  41.8690831  36.3641881  91.3320238  42.6941120  37.4343165
 100.2260446  54.3848354  41.0561761 100.0785409  53.4565062  41.2369331
 101.0513940  54.4068445  40.5718836  94.0922691  43.0366421  36.9142253
  94.4318763  43.5652343  36.1920861  94.5394811  43.3746828  37.6900820
 103.8294568  55.2076913  42.1426634 104.7541116  55.0019774  42.0051085
 103.6609872  54.9593314  43.0515975  96.7866132  41.4203472  46.3645321
  96.4462952  40.6211285  46.7666001  96.0805138  41.7205183  45.7922154
  97.4382603  38.5052785  44.8172644  98.2608673  38.0313263  44.6951534
  97.6820667  39.2843268  45.3171330  96.0790838  41.5341043  35.1135546
  96.7999200  41.9122296  34.6099263  95.4556142  42.2529920  35.2170524
 100.2221961  42.2386192  36.0493878 100.4385575  43.1210830  35.7482706
  99.7416028  41.8472405  35.3199520  94.9621182  45.1971905  42.6264623
  94.8165763  45.5112208  43.5188904  94.4846386  45.8156806  42.0735521
  96.8217565  42.1874453  42.6745512  96.8079134  41.2915547  42.3377810
  97.5389993  42.1945117  43.3083798  98.6743696  42.6211793  44.7198640
  98.4161474  43.5428864  44.7182970  98.1428736  42.2242228  45.4099104
 103.6189884  55.7262581  37.4988725 103.7926762  55.1609003  36.7462578
 104.1118776  56.5263475  37.3168215  89.4366844  47.7377250  45.5652284
  88.8920312  48.5137058  45.6972558  90.3146194  48.0848054  45.4071405
  96.2254461  41.0688834  37.9433082  96.3470372  40.1405480  38.1423970
  95.9356503  41.0827520  37.0311398  99.0945651  38.7543744  41.0799802
  99.1167348  38.8183077  40.1251782  99.5113710  37.9148253  41.2740308
 109.4729276  48.4899004  39.1179025 109.9160422  47.7406329  38.7198148
 108.5955786  48.4809140  38.7352757 104.6065057  55.0429345  34.5985623
 105.3015962  55.6636038  34.8172938 104.9488207  54.1924696  34.8738001
  90.2232866  46.8647146  48.4582441  89.4814602  47.0129781  49.0447071
  89.9025610  47.1255412  47.5949190 106.5056480  52.4929051  36.1272954
 107.0307804  52.8316323  35.4022274 106.4178833  51.5576066  35.9436089
  98.1676529  56.4063124  48.2562831  98.4763655  56.1612271  49.1285530
  98.9652011  56.6109763  47.7681701  98.1897141  58.5601034  40.4868207
  97.7502131  58.0677412  41.1801064  98.9405258  58.0174001  40.2460283
  90.6689480  54.7512575  40.4892835  91.4947500  54.4516347  40.1091479
  90.3183532  53.9820197  40.9382624  95.6371013  54.1039043  42.5590509
  95.0151022  53.4409748  42.2592737  96.3075880  54.1300175  41.8764157
  88.8698085  52.6698901  41.4481769  88.0329993  52.2421075  41.2665770
  88.8421730  52.8631344  42.3852560  95.7095540  42.5820831  52.1523015
  95.7583696  43.4582954  51.7700785  96.2518055  42.0398224  51.5794658
 106.1950386  53.1261954  51.4324152 105.4045930  53.1086093  50.8928652
 105.9583741  53.6650248  52.1873189 106.3148261  49.9754421  48.7456881
 106.3646266  49.8104428  49.6872403 106.2062185  49.1081680  48.3554761
  95.1984520  52.6542966  36.0348970  95.3472640  53.3378431  35.3815642
  96.0050963  52.6348056  36.5498425 103.6052024  45.9585349  50.0616187
 104.5061886  45.8191813  49.7700185 103.6799998  46.1239803  51.0014365
  97.9394829  43.3352203  48.9069374  97.0698138  43.6285769  48.6351962
  98.1754309  43.9192648  49.6276637 107.8166458  52.3951362  48.9898902
 107.5251266  52.7581343  49.8262363 107.2038589  51.6818370  48.8112234
 109.0162140  49.9604242  41.5101472 109.8509032  50.3994046  41.6739033
 109.1521269  49.4842895  40.6909718 106.0653646  47.5183977  47.4578960
 106.5407768  47.7111623  46.6497812 105.1419212  47.5743163  47.2122344
  92.9537153  48.6808144  37.0410038  92.7083195  47.7770474  37.2390249
  93.1233067  48.6825294  36.0989516 100.6433863  39.5531820  46.4234794
 101.1615807  40.2892847  46.0981283 100.2888996  39.8595814  47.2581553
  92.2232800  44.4136501  34.5396200  91.5302045  44.4880856  33.8836236
  91.9784552  43.6496845  35.0617717 100.8946457  35.9732103  41.9435691
 101.1748211  35.3055292  42.5696117 101.6797064  36.1661198  41.4310355
  98.6979925  55.1491097  33.5060717  98.1253892  55.7681284  33.0531189
  99.2712719  55.6990458  34.0400639 104.7655315  44.3949737  45.6907266
 105.7172738  44.4947834  45.7119490 104.5958766  43.6028005  46.2005350
 102.7869695  41.4805320  45.8766667 102.1919627  41.7610333  45.1813155
 102.5019391  41.9699221  46.6483408 101.9177185  55.4328247  34.6369299
 102.8507858  55.3673808  34.8402175 101.8300398  56.2684514  34.1783832
 104.5465202  54.7494117  31.5973247 104.4678833  54.4153981  32.4909005
 105.3674869  55.2415885  31.5964719 107.2443393  47.6155856  44.8049565
 107.2119713  46.6771857  44.9909249 107.8544017  47.6939893  44.0715390
  99.0826724  46.4851909  30.8476769 100.0285829  46.3558118  30.9165188
  98.7040969  45.7466571  31.3246198 107.3937882  44.4066900  44.8507849
 106.8776930  43.6225357  44.6637777 108.2777830  44.0785617  45.0154368
 105.0548608  38.1507915  40.8103661 104.8573430  37.8423004  41.6946993
 105.6648314  38.8769554  40.9401591  98.9665416  50.5369656  52.3077426
  99.8868426  50.7148255  52.5017473  98.9314999  49.5925701  52.1557126
  97.2669641  44.4101886  30.7831655  96.3601096  44.1134999  30.8594368
  97.5445622  44.1131704  29.9165941  88.1847581  45.7308249  41.2330701
  87.8650366  44.8773557  40.9405075  87.6381010  45.9456827  41.9888668
  91.9627489  48.4470690  44.9500208  92.1813499  49.3787798  44.9688241
  92.3753263  48.0878665  45.7355011  98.8831707  38.9538776  36.9375896
  98.0732435  38.6085861  37.3131142  99.5716124  38.6446319  37.5263508
 100.8122255  38.0316822  38.5600193 101.3653294  38.4512276  39.2190216
 101.0492341  37.1052570  38.6023149  96.8355354  44.0203896  54.3402957
  96.7352081  44.9698253  54.2715048  96.6176896  43.6922135  53.4679027
  96.0368426  41.2688821  30.9243634  96.8987590  41.5943719  31.1839451
  96.2218770  40.4820317  30.4116700  88.0535841  49.3511161  43.2023823
  87.3599313  48.9365114  42.6893777  88.8008832  49.3931697  42.6057242
 104.1901062  40.1417347  38.0678857 103.6099731  40.8002152  37.6856909
 103.9236995  39.3194692  37.6566274 102.6404629  39.5422405  40.2700177
 103.1404407  39.6538940  39.4614496 103.2840236  39.2383458  40.9100986
  96.6986624  47.4501035  53.1568018  96.2153706  48.2501395  53.3631907
  96.7847563  47.4608980  52.2035462  89.9672584  49.2829415  41.0789838
  89.9443272  49.3817102  40.1271721  90.2773220  50.1294565  41.4007004
  92.6259962  51.3405570  45.1936452  93.5803215  51.3089512  45.1266384
  92.4272485  50.8796193  46.0086678  93.2159344  49.9106686  47.7607250
  94.0352233  50.4050764  47.7842087  93.4896152  48.9938654  47.7324817
 102.9725940  42.3017438  37.1235205 102.0851795  42.5867089  36.9055400
 103.3879929  42.1411201  36.2762482 106.3240476  42.3263959  40.8389544
 107.1000866  42.8160411  41.1114161 105.5988610  42.7522013  41.2961414
 108.7613035  43.0391578  41.8963485 109.3557526  42.7987314  41.1856793
 108.8339619  42.3198709  42.5237021  90.9810191  56.8825189  42.2106650
  90.8464659  56.1225590  41.6444648  90.5642253  57.6066089  41.7435439
 102.1169154  52.0662113  31.2183225 102.8205004  52.2712115  31.8340881
 101.3931802  52.6338874  31.4832309 102.9466964  47.8171974  37.3385495
 102.8902165  48.2740525  36.4993128 103.4995306  47.0562658  37.1608338
 106.7571770  43.6061706  38.1635615 106.5008704  43.2058341  38.9943823
 106.1324638  44.3205500  38.0385754  94.1379316  57.7794506  42.4225093
  94.0211701  58.7239939  42.3203783  93.3171763  57.4768068  42.8110892
 104.0255851  52.5044642  33.2681685 104.8601455  52.0725840  33.0859160
 103.8640194  52.3326655  34.1958580 103.6801743  49.0076755  34.6338025
 103.6250547  48.8421026  33.6926469 103.0547798  49.7152788  34.7900214
  88.4694258  44.2444819  48.4599447  89.1153122  43.7343773  48.9486672
  88.2611409  44.9813501  49.0342872 100.9947650  51.3125667  53.9591587
 101.8638810  51.4866319  53.5978222 100.5154402  52.1320084  53.8367317
  96.9897869  38.5084864  34.2123343  96.9776539  39.4526704  34.3691614
  97.8821291  38.3255009  33.9182804  95.1633831  58.4322768  45.6381021
  96.0661077  58.4646378  45.9547516  94.9371201  57.5023219  45.6527357
  96.9187433  57.1853754  42.2991100  95.9683064  57.1855616  42.1855472
  97.2219919  56.4386489  41.7827134 100.8049988  35.1027641  38.4669280
 100.0382384  34.5486127  38.6125962 101.2160693  35.1749509  39.3283431
  92.8091749  41.3912437  52.5574461  93.6723211  41.0349241  52.7677786
  92.2357160  41.0526331  53.2449865 109.4629832  62.9741721  43.2998387
 109.1248344  62.8582786  42.4118922 110.3319601  62.5732886  43.2799393
 105.3216648  64.8277197  39.2895278 104.7581513  64.7367134  38.5211565
 105.2069043  64.0077102  39.7697770 109.9449615  64.1276573  49.2584592
 109.9338256  63.7329371  48.3865096 110.1070255  63.3942645  49.8518364
 102.8681080  66.3228389  42.1279498 103.6602372  65.9819214  41.7125797
 103.1077730  66.4323364  43.0481651 104.8271834  65.5837302  34.9996877
 105.6002710  65.0366289  34.8609753 105.1797233  66.4481552  35.2111338
 106.6656877  66.9113684  48.2063776 106.3746743  67.8159315  48.0910442
 107.3013861  66.9530212  48.9207846 107.5913083  64.2890533  44.7965136
 108.1876656  64.0646555  44.0822099 107.6488055  63.5475278  45.3990584
 107.1638112  61.7429968  32.6315327 107.4163632  61.2211490  31.8698790
 106.2262671  61.5796114  32.7342010 106.8834401  63.6458074  34.8339702
 106.7670659  62.9702978  35.5020786 106.9936660  63.1590448  34.0171855
 109.2265941  63.1068221  38.5386391 108.8624149  62.5798842  39.2499312
 110.0833057  62.7166690  38.3652876 108.8671428  58.1358121  33.5347739
 109.0345831  59.0038358  33.9018211 108.6768598  58.2985403  32.6109029
 105.0759243  63.0488897  41.2350274 104.1509740  62.9165111  41.4427966
 105.3243656  63.8283116  41.7320217 108.8460649  60.5915779  34.5194406
 108.7260275  61.0372829  35.3579887 108.1513238  60.9401096  33.9607944
 102.4368054  62.6922170  42.0694063 102.5660435  62.9456649  42.9833475
 101.7565505  63.2849878  41.7498718 106.6067541  73.3619420  38.1684538
 106.5291571  74.3127245  38.2473018 106.0029185  73.0165293  38.8259464
 109.0984771  60.5347286  50.8245904 108.3218105  61.0941206  50.8148769
 109.7375334  61.0204069  51.3460775 107.3531144  63.3432739  50.3863871
 108.0945828  63.8817783  50.1098695 106.6468129  63.9699028  50.5435423
 109.1817553  60.4234486  46.3569590 110.0278748  60.8473900  46.5004239
 109.1216191  59.7668111  47.0508153 108.7043260  65.7837478  40.0038407
 109.1681605  66.0625181  39.2143029 108.4400058  64.8820923  39.8211498
 105.5967341  65.3308960  42.9418170 106.1668698  65.7596228  42.3035655
 106.1875453  65.0491545  43.6402356 107.6412146  61.9060631  36.8127972
 108.3436189  62.3581674  37.2801898 107.3092774  61.2644450  37.4407865
 106.0892507  60.4972387  51.1879181 105.4591168  61.1788668  51.4214578
 105.9828595  60.3855469  50.2432320 101.3837480  60.1644183  42.1145106
 100.5936534  60.4201712  41.6385216 101.8748727  60.9792521  42.2197146
 103.3352225  60.5288763  39.0728582 102.5383388  60.6407457  39.5912078
 103.1077817  60.8675415  38.2069473 109.1657893  67.0533466  47.0211097
 109.2302325  67.5153873  47.8569269 108.4568817  66.4230831  47.1493407
  99.6675183  60.4174674  44.5460096  99.9183221  61.3021684  44.8117672
 100.2034731  60.2379275  43.7735188 108.8805910  68.7201573  36.8890077
 108.7451585  69.5653109  37.3174925 109.4215723  68.9220851  36.1256011
 105.3673250  54.7993153  53.5504432 104.9740196  54.2459352  54.2252077
 106.1839390  55.1103732  53.9410950 102.3335308  66.2377011  37.4618002
 102.8459828  67.0320262  37.6123567 102.9858021  65.5403302  37.3951604
 104.1430192  69.3542768  39.5440756 104.3196821  70.2760732  39.3561739
 104.9387026  69.0401187  39.9735135 108.2841211  56.2151032  51.1424689
 109.0250924  56.8158185  51.0629152 108.5159134  55.4728670  50.5842732
 103.4282549  61.4007400  49.4202919 103.3136064  60.4992657  49.7210018
 102.5727067  61.6471096  49.0687735 105.2661508  70.8720941  45.5451098
 105.8168933  70.7438005  44.7728092 104.4272984  71.1715830  45.1945991
 109.0628679  67.1372069  49.8895329 109.5957016  66.3760357  49.6594637
 108.5342760  66.8445721  50.6319483 100.2984225  64.5665666  38.2377573
 101.1359447  64.9762674  38.0211281 100.4762492  63.6265108  38.2077767
 109.7795768  57.0790447  38.9846644 108.9237364  56.6897297  38.8052283
 110.1922719  57.1582408  38.1246430 107.5537800  54.6975520  42.3904386
 108.4190797  54.5018329  42.0310275 107.6215309  54.4685872  43.3173742
 110.4281392  66.2658062  37.4014141 109.9002753  65.5310821  37.0887378
 109.9268894  67.0432738  37.1554109 105.1600119  56.9277728  39.7620753
 105.7343871  56.7052909  39.0293945 105.7471102  56.9966423  40.5149354
 105.4869706  58.9582189  33.7816638 104.6507019  59.2956876  34.1025913
 105.3474476  58.8231169  32.8443775 107.4622787  53.8018977  38.4895822
 106.8087199  53.4867994  37.8652437 107.4203261  53.1794717  39.2155645
 108.5733992  64.0838272  30.4049114 107.6661054  63.8527525  30.6040263
 109.0705024  63.2875891  30.5923096 109.7522225  64.1850867  34.9273104
 108.8433445  63.9009900  35.0245574 109.7817309  64.6049945  34.0676411
 100.3210396  61.9056381  38.9088306 100.1234795  61.3125742  38.1839373
  99.7657060  61.6008591  39.6264245 108.3007119  61.7979487  41.0282899
 108.3555729  60.8453324  40.9525376 107.4898321  61.9538927  41.5124198
 109.4498313  65.7259611  32.2661183 109.0117743  65.0095469  31.8066820
 110.1908754  65.9535725  31.7046274 106.2399479  60.4156547  38.7873278
 105.4267345  60.7150718  39.1938470 106.7358473  60.0212236  39.5047761
 108.3908057  70.4114304  40.7207543 108.3484236  70.6375150  39.7916075
 109.3070756  70.1777679  40.8693344 105.7313554  57.9874903  44.4034513
 106.3712933  57.8463662  43.7057477 104.8991085  57.7009416  44.0273115
 106.5073858  67.2877333  40.5169506 107.3014456  66.7927653  40.3152081
 105.7965550  66.7595196  40.1537211 102.8156621  61.4320415  36.5929258
 101.8854209  61.3704870  36.8099221 102.9114093  60.9096368  35.7965900
 102.7342170  57.9575228  39.1807500 102.9948988  58.8720561  39.0716661
 103.5559343  57.4899670  39.3304113 104.2067096  59.3712985  46.3506325
 104.8790149  59.1630347  45.7018974 103.3796882  59.1735071  45.9111557
 109.0845134  67.8606355  44.1967343 108.9456220  67.4925140  45.0693281
 108.2959730  68.3753995  44.0251301 109.6793286  72.9615452  35.5392879
 109.8545042  72.4903495  36.3538502 108.9926074  73.5881218  35.7674140
 104.6094593  62.6455588  47.1108762 104.4714391  61.9135827  47.7120301
 105.5199516  62.5564488  46.8292950 107.2376894  62.3575547  46.5992441
 107.9476512  61.7168739  46.5579060 107.1946202  62.6088442  47.5218622
 105.9505828  59.3440765  48.4188081 105.4143185  58.8931504  49.0709677
 105.3622536  59.4786674  47.6758545 104.2454371  76.1104814  42.3132740
 104.4850969  76.7423339  42.9911758 103.4023568  75.7592854  42.5998099
 105.3608087  58.8029416  30.9814545 104.4837553  58.6818217  30.6176791
 105.8365840  58.0115495  30.7293433  96.8810227  63.5906576  41.0756052
  97.5681267  63.2768306  40.4877067  96.7258355  64.4947941  40.8023303
 101.6844949  58.4796773  45.5041075 101.6003138  57.8722442  44.7691485
 100.8627655  58.9705791  45.5050572 108.7582233  71.9183937  44.7174244
 108.6852404  72.7238908  45.2293548 108.3159626  72.1175903  43.8922265
 108.5472013  71.1555707  38.2277065 107.7639535  71.6977387  38.3215290
 109.2464758  71.6729686  38.6271306 108.4403631  59.1067719  40.5982955
 108.0701419  58.5538760  41.2863861 108.9362724  58.5025853  40.0457955
 106.2692830  69.5665214  47.6937973 106.9702290  70.2001697  47.8467367
 105.7987945  69.9079946  46.9333612 101.8660548  69.1001569  44.6269076
 102.4513985  68.3545257  44.7596980 101.6685387  69.4105526  45.5105740
 104.7199203  72.1352817  39.6431518 104.0509579  72.6198944  39.1595558
 104.5812073  72.3822037  40.5574897  96.4578203  61.6707170  43.3473519
  96.4962302  61.1370760  44.1410637  95.9518496  61.1442375  42.7284496
 108.8604472  74.1696560  46.2414176 109.4122780  74.3328182  47.0063262
 109.2010665  74.7600998  45.5694201 103.8368965  56.5171710  46.8436061
 103.9010292  57.3786541  46.4313459 103.7736085  55.9045712  46.1108420
 103.3121238  58.5894843  50.4909095 103.9393277  58.2071920  51.1046620
 102.4549157  58.3709045  50.8564788 100.0886780  60.3971272  36.4227450
 100.3840222  59.4881950  36.3694504  99.1874816  60.3759011  36.1008453
 103.6181027  58.4727268  42.4054999 102.8967613  59.0863236  42.2662472
 104.4074283  59.0085033  42.3271645 106.4207341  55.8081695  48.6795651
 106.9441743  56.0543991  49.4421960 106.2019674  56.6401730  48.2598788
 101.8174622  58.0785369  36.5466775 101.4887328  57.1982748  36.3641881
 102.1713993  58.0233038  37.4343165 104.9316445  58.3658339  36.9142253
 105.2712518  58.8944260  36.1920861 105.3788566  58.7038745  37.6900820
 107.6259886  56.7495390  46.3645321 107.2856706  55.9503203  46.7666001
 106.9198892  57.0497101  45.7922154 108.2776358  53.8344702  44.8172644
 109.1002427  53.3605181  44.6951534 108.5214421  54.6135186  45.3171330
 106.9184592  56.8632961  35.1135546 107.6392955  57.2414214  34.6099263
 106.2949896  57.5821838  35.2170524 105.8014937  60.5263823  42.6264623
 105.6559517  60.8404126  43.5188904 105.3240140  61.1448723  42.0735521
 107.6611319  57.5166371  42.6745512 107.6472888  56.6207464  42.3377810
 108.3783748  57.5237035  43.3083798 109.5137450  57.9503711  44.7198640
 109.2555228  58.8720782  44.7182970 108.9822491  57.5534146  45.4099104
 100.2760599  63.0669167  45.5652284  99.7314067  63.8428975  45.6972558
 101.1539949  63.4139972  45.4071405 107.0648215  56.3980751  37.9433082
 107.1864127  55.4697397  38.1423970 106.7750258  56.4119437  37.0311398
 109.9339406  54.0835662  41.0799802 109.9561103  54.1474995  40.1251782
 110.3507465  53.2440170  41.2740308 101.0626621  62.1939064  48.4582441
 100.3208357  62.3421699  49.0447071 100.7419365  62.4547329  47.5949190
 109.0070283  71.7355042  48.2562831 109.3157410  71.4904189  49.1285530
 109.8045765  71.9401680  47.7681701 109.0290895  73.8892951  40.4868207
 108.5895886  73.3969330  41.1801064 109.7799012  73.3465919  40.2460283
 101.5083234  70.0804492  40.4892835 102.3341254  69.7808264  40.1091479
 101.1577286  69.3112115  40.9382624 106.4764767  69.4330961  42.5590509
 105.8544777  68.7701666  42.2592737 107.1469634  69.4592092  41.8764157
  99.7091839  67.9990819  41.4481769  98.8723748  67.5712993  41.2665770
  99.6815485  68.1923262  42.3852560 106.5489295  57.9112749  52.1523015
 106.5977450  58.7874871  51.7700785 107.0911809  57.3690142  51.5794658
 106.0378274  67.9834884  36.0348970 106.1866395  68.6670348  35.3815642
 106.8444718  67.9639974  36.5498425 108.7788583  58.6644121  48.9069374
 107.9091893  58.9577687  48.6351962 109.0148064  59.2484566  49.6276637
 103.7930907  64.0100062  37.0410038 103.5476949  63.1062392  37.2390249
 103.9626822  64.0117212  36.0989516 103.0626555  59.7428419  34.5396200
 102.3695800  59.8172774  33.8836236 102.8178307  58.9788763  35.0617717
 109.5373680  70.4783014  33.5060717 108.9647647  71.0973201  33.0531189
 110.1106474  71.0282376  34.0400639 108.1063396  59.7393804  30.7831655
 107.1994851  59.4426916  30.8594368 108.3839377  59.4423622  29.9165941
  99.0241336  61.0600167  41.2330701  98.7044120  60.2065475  40.9405075
  98.4774764  61.2748745  41.9888668 102.8021243  63.7762608  44.9500208
 103.0207253  64.7079716  44.9688241 103.2147017  63.4170582  45.7355011
 109.7225461  54.2830693  36.9375896 108.9126190  53.9377778  37.3131142
 110.4109878  53.9738237  37.5263508 107.6749109  59.3495814  54.3402957
 107.5745836  60.2990171  54.2715048 107.4570651  59.0214053  53.4679027
 106.8762180  56.5980739  30.9243634 107.7381344  56.9235637  31.1839451
 107.0612524  55.8112235  30.4116700  98.8929596  64.6803078  43.2023823
  98.1993067  64.2657031  42.6893777  99.6402587  64.7223615  42.6057242
 107.5380379  62.7792953  53.1568018 107.0547461  63.5793313  53.3631907
 107.6241318  62.7900897  52.2035462 100.8066338  64.6121332  41.0789838
 100.7837027  64.7109019  40.1271721 101.1166975  65.4586483  41.4007004
 103.4653716  66.6697487  45.1936452 104.4196970  66.6381430  45.1266384
 103.2666240  66.2088111  46.0086678 104.0553098  65.2398603  47.7607250
 104.8745987  65.7342682  47.7842087 104.3289906  64.3230571  47.7324817
 101.8203945  72.2117107  42.2106650 101.6858413  71.4517508  41.6444648
 101.4036007  72.9358007  41.7435439 104.9773071  73.1086424  42.4225093
 104.8605455  74.0531856  42.3203783 104.1565517  72.8059985  42.8110892
  99.3088013  59.5736737  48.4599447  99.9546876  59.0635691  48.9486672
  99.1005164  60.3105419  49.0342872 107.8291623  53.8376782  34.2123343
 107.8170293  54.7818622  34.3691614 108.7215045  53.6546927  33.9182804
 106.0027585  73.7614686  45.6381021 106.9054832  73.7938296  45.9547516
 105.7764955  72.8315137  45.6527357 107.7581187  72.5145672  42.2991100
 106.8076818  72.5147534  42.1855472 108.0613673  71.7678407  41.7827134
 103.6485504  56.7204354  52.5574461 104.5116965  56.3641159  52.7677786
 103.0750914  56.3818249  53.2449865 107.7203981  78.9198494  41.0756052
 108.4075021  78.6060224  40.4877067 107.5652110  79.8239859  40.8023303
 107.2971957  76.9999087  43.3473519 107.3356057  76.4662678  44.1410637
 106.7912250  76.4734293  42.7284496 109.8635090  76.3892085  41.2330701
 109.5437875  75.5357393  40.9405075 109.3168519  76.6040663  41.9888668
 109.7323350  80.0094996  43.2023823 109.0386822  79.5948949  42.6893777
 110.4796341  80.0515533  42.6057242  74.0886279   4.3805790  24.8929844
  74.0110309   5.3313615  24.9718325  73.4847923   4.0351662  25.5504770
  71.7273109   7.1291184  29.0378046  71.9669707   7.7609708  29.7157065
  70.8842305   6.7779224  29.3243405  72.2017941   3.1539186  26.3676825
  71.5328316   3.6385314  25.8840865  72.0630811   3.4008407  27.2820203
  76.3423210   5.1882930  32.9659483  76.8941518   5.3514551  33.7308568
  76.6829403   5.7787368  32.2939508  69.3022683   3.2303476  28.9351957
  69.1677151   2.4703877  28.3689955  68.8854745   3.9544376  28.4680745
  72.4591809   4.1272793  29.1470399  72.3424193   5.0718226  29.0449089
  71.6384255   3.8246355  29.5356198  73.4846323   4.7801055  32.3626328
  74.3873570   4.8124665  32.6792823  73.2583693   3.8501506  32.3772663
  87.7842325   9.3220008  30.0243693  87.4460836   9.2061073  29.1364228
  88.6532093   8.9211173  30.0044699  83.6429140  11.1755485  26.0140584
  83.0794006  11.0845422  25.2456872  83.5281535  10.3555389  26.4943077
  88.2662108  10.4754860  35.9829899  88.2550748  10.0807658  35.1110402
  88.4282747   9.7420933  36.5763670  81.1893572  12.6706676  28.8524805
  81.9814864  12.3297501  28.4371104  81.4290222  12.7801651  29.7726958
  89.2228699  14.8426452  21.3255049  88.5716679  15.4280533  20.9389063
  90.0173062  15.3732647  21.3850087  83.1484326  11.9315589  21.7242183
  83.9215202  11.3844577  21.5855059  83.5009725  12.7959839  21.9356645
  84.9869369  13.2591972  34.9309083  84.6959235  14.1637603  34.8155749
  85.6226353  13.3008499  35.6453152  85.9125576  10.6368820  31.5210442
  86.5089148  10.4124843  30.8067405  85.9700547   9.8953566  32.1235890
  90.7003964  12.5316884  21.8624033  90.0649797  12.6051511  22.5744938
  90.3701371  13.1210483  21.1843113  85.2046893   9.9936362  21.5585008
  85.0883151   9.3181265  22.2266093  85.3149153   9.5068735  20.7417161
  87.5478434   9.4546509  25.2631698  87.1836641   8.9277130  25.9744619
  88.4045550   9.0644978  25.0898183  89.9459254  12.9453387  31.9258876
  89.6459977  13.8478426  31.8174684  89.6010313  12.6785570  32.7780029
  83.3971735   9.3967184  27.9595581  82.4722232   9.2643398  28.1673273
  83.6456149  10.1761403  28.4565523  80.7580546   9.0400458  28.7939370
  80.8872928   9.2934937  29.7078782  80.0777998   9.6328166  28.4744025
  84.9280034  19.7097708  24.8929844  84.8504063  20.6605533  24.9718325
  84.3241677  19.3643580  25.5504770  85.6743636   9.6911026  37.1109178
  86.4158320  10.2296070  36.8344002  84.9680621  10.3177315  37.2680730
  91.1498975  11.8340167  35.7081340  91.5582331  11.3922577  34.9635972
  90.4276237  11.2592794  35.9615532  91.4727790  12.3941357  29.4633628
  90.8436653  12.5587072  28.7609696  91.0853452  12.8082967  30.2344592
  95.3517022  13.3295795  26.8177992  94.6668060  13.7094697  26.2675026
  95.4360871  13.9391122  27.5509940  87.0255752  12.1315766  26.7283714
  87.4894097  12.4103469  25.9388336  86.7612550  11.2299210  26.5456804
  83.9179833  11.6787247  29.6663477  84.4881190  12.1074515  29.0280961
  84.5087945  11.3969832  30.3647662  79.7049972   6.5122471  28.8390412
  78.9149026   6.7679999  28.3630523  80.1961219   7.3270808  28.9442453
  93.7213782  13.8527710  31.5895693  94.5431225  13.4507897  31.3078375
  93.7176184  13.7495944  32.5411809  81.6564717   6.8767050  25.7973889
  80.8595881   6.9885744  26.3157385  81.4290310   7.2153702  24.9314779
  87.4870385  13.4011753  33.7456404  87.5514817  13.8632160  34.5814575
  86.7781309  12.7709118  33.8738713  77.9887675   6.7652961  31.2705403
  78.2395713   7.6499971  31.5362979  78.5247223   6.5857563  30.4980495
  87.2018403  15.0679861  23.6135384  87.0664077  15.9131396  24.0420232
  87.7428215  15.2699138  22.8501318  80.6547800  12.5855299  24.1863309
  81.1672321  13.3798549  24.3368874  81.3070513  11.8881589  24.1196910
  82.4642685  15.7021055  26.2686062  82.6409313  16.6239020  26.0807046
  83.2599518  15.3879474  26.6980442  81.7495041   7.7485687  36.1448225
  81.6348556   6.8470944  36.4455324  80.8939559   7.9949384  35.7933042
  88.8286879  15.6903427  37.7435726  88.3850733  14.9039806  37.4256630
  89.4904093  15.8782578  37.0779617  83.5874000  17.2199229  32.2696404
  84.1381425  17.0916292  31.4973398  82.7485476  17.5194118  31.9191297
  90.9268117  15.9706227  35.7717127  90.9086592  16.7915108  35.2797396
  91.8488037  15.8460302  35.9967268  87.3841171  13.4850356  36.6140636
  87.9169508  12.7238645  36.3839944  86.8555252  13.1924008  37.3564790
  78.6196717  10.9143953  24.9622880  79.4571939  11.3240961  24.7456587
  78.7974984   9.9743395  24.9323073  88.7493884  12.6136349  24.1259448
  88.2215246  11.8789109  23.8132685  88.2481387  13.3911025  23.8799416
  93.7286730  10.8085369  29.2426494  93.0710404  11.4984631  29.3306623
  94.5327129  11.1981801  29.5860480  89.8014563  19.1414066  20.0491107
  89.1276262  19.4445763  20.6576065  90.1880385  19.9443147  19.6996564
  88.0734718  10.5329154  21.6518411  87.1645937  10.2488187  21.7490881
  88.1029801  10.9528233  20.7921718  93.3053985  14.1435744  25.4209578
  92.8516312  13.3026653  25.4774769  92.6747952  14.7797142  25.7584358
  91.7486924  15.9812240  26.3559396  92.0409899  16.5417297  25.6371762
  92.2585545  16.2740801  27.1112556  78.6422888   8.2534668  25.6333613
  78.4447288   7.6604029  24.9084680  78.0869552   7.9486878  26.3509552
  87.7710805  12.0737898  18.9906489  87.3330235  11.3573757  18.5312127
  88.5121246  12.3014013  18.4291581  86.7120549  16.7592591  27.4452850
  86.6696728  16.9853438  26.5161382  87.6283248  16.5255966  27.5938651
  95.9153300  12.4171622  30.0594079  96.3489806  12.3246911  30.9077133
  96.6284880  12.3929122  29.4214095  84.8286350  13.6355620  27.2414812
  85.6226949  13.1405941  27.0397387  84.1178043  13.1073484  26.8782518
  89.6481195  16.0173716  31.5927180  89.7018217  16.5864652  32.3604896
  88.7795976  16.1875601  31.2281217  81.1369114   7.7798702  23.3174565
  80.2066702   7.7183158  23.5344527  81.2326586   7.2574655  22.5211206
  96.7768849  12.4595322  32.5926965  96.9704739  13.3641133  32.8386240
  96.6769467  12.0002742  33.4265550  91.8383958  12.6102065  38.1667845
  91.6869464  12.3812617  37.2497929  91.8288637  13.5672667  38.1799190
  88.6069294  10.1833978  33.1514112  89.5361354  10.3345138  32.9783079
  88.1860324  10.2717999  32.2962758  87.4057626  14.2084642  30.9212649
  87.2668712  13.8403427  31.7938588  86.6172222  14.7232282  30.7496607
  88.0005778  19.3093739  22.2638186  88.1757534  18.8381782  23.0783809
  87.3138566  19.9359505  22.4919447  88.9562841  13.5866245  28.3101487
  88.6212674  13.5467015  29.2059137  88.4566787  12.9210961  27.8371898
  82.9307085   8.9933875  33.8354068  82.7926883   8.2614114  34.4365607
  83.8412009   8.9042775  33.5538256  85.5589386   8.7053834  33.3237748
  86.2689004   8.0647027  33.2824367  85.5158694   8.9566729  34.2463929
  93.5476165  15.6421188  36.2444327  93.4888711  14.9580408  35.5774910
  93.9495683  16.3840178  35.7924953  82.5666863  22.4583102  29.0378046
  82.8063462  23.0901626  29.7157065  81.7236060  22.1071142  29.3243405
  93.5493572  13.6060772  34.4758307  92.6620351  13.2686693  34.5984706
  94.1192123  12.8743803  34.7127072  75.2022719   9.9384863  27.8001358
  75.8893759   9.6246593  27.2122374  75.0470848  10.8426228  27.5268610
  87.0794725  18.2662224  31.4419550  87.0064897  19.0717196  31.9538855
  86.6372118  18.4654190  30.6167572  86.8684505  17.5033994  24.9522372
  86.0852027  18.0455674  25.0460596  87.5677250  18.0207974  25.3516613
  89.5393409  18.1649058  33.5977709  90.2521381  18.7996523  33.5253610
  89.0483437  18.2612924  32.7817711  91.2610936  12.0700311  25.1695000
  90.3267214  12.1901773  24.9999705  91.4387604  11.1672778  24.9055010
  84.5905322  15.9143502  34.4183280  85.2914782  16.5479985  34.5712674
  84.1200437  16.2558233  33.6578919  92.7159718  14.2561451  22.7031187
  92.9919562  14.1418046  23.6125061  91.8464217  13.8578936  22.6643360
  89.3513782  18.5047802  26.3464000  89.5336177  17.6869458  26.8091753
  90.1746768  18.7215494  25.9088890  89.6855948  17.4315987  23.6079049
  90.2143714  16.9208442  22.9949211  89.9484167  17.1158518  24.4724582
  80.1873040  15.4479857  31.3514382  80.7726477  14.7023544  31.4842287
  79.9897879  15.7583813  32.2351046  83.0411696  18.4831104  26.3676825
  82.3722071  18.9677232  25.8840865  82.9024565  18.7300324  27.2820203
  74.7790695   8.0185457  30.0718825  74.8174795   7.4849047  30.8655944
  74.2730988   7.4920662  29.4529803  87.1816964  20.5174848  32.9659483
  87.7335272  20.6806469  33.7308568  87.5223158  21.1079285  32.2939508
  92.0327839  15.3436105  38.8208138  92.5767743  15.9566063  38.3263092
  91.4514683  15.9015683  39.3375151  78.4099273   6.7449559  23.1472757
  78.7052714   5.8360237  23.0939811  77.5087308   6.7237298  22.8253759
  90.3185351  18.4656823  29.9523165  90.1936491  17.6646563  29.4434111
  90.9764443  18.9603016  29.4637135  92.3820260  16.2665843  31.5802715
  91.4350595  16.1471194  31.5081042  92.7303033  15.3788341  31.6628977
  89.3866693  16.0618559  27.7807068  89.2391656  15.1335267  27.9614638
  90.2120187  16.0838650  27.2964143  92.9900815  16.8847118  28.8671940
  93.9147362  16.6789979  28.7296391  92.8216118  16.6363519  29.7761282
  92.7796131  17.4032786  24.2234032  92.9533009  16.8379208  23.4707884
  93.2725022  18.2033680  24.0413522  78.5973091   9.4147455  32.2897591
  78.0526559  10.1907263  32.4217865  79.4752441   9.7618259  32.1316712
  93.7671304  16.7199550  21.3230930  94.4622208  17.3406243  21.5418245
  94.1094454  15.8694901  21.5983308  79.3839113   8.5417351  35.1827747
  78.6420849   8.6899986  35.7692378  79.0631857   8.8025616  34.3194497
  87.3282776  18.0833329  34.9808137  87.6369902  17.8382476  35.8530837
  88.1258258  18.2879968  34.4927008  87.3503388  20.2371239  27.2113514
  86.9108378  19.7447617  27.9046371  88.1011505  19.6944206  26.9705589
  79.8295727  16.4282780  27.2138142  80.6553746  16.1286551  26.8336786
  79.4789779  15.6590402  27.6627931  84.7977260  15.7809248  29.2835816
  84.1757269  15.1179953  28.9838044  85.4682127  15.8070380  28.6009463
  78.0304332  14.3469106  28.1727076  77.1936240  13.9191280  27.9911077
  78.0027977  14.5401549  29.1097867  95.3556633  14.8032159  38.1569459
  94.5652177  14.7856298  37.6173958  95.1189987  15.3420453  38.9118495
  84.3590767  14.3313171  22.7594276  84.5078887  15.0148636  22.1060949
  85.1657210  14.3118261  23.2743732  96.9772705  14.0721567  35.7144209
  96.6857513  14.4351548  36.5507670  96.3644836  13.3588575  35.5357541
  82.1143400  10.3578349  23.7655345  81.8689442   9.4540679  23.9635555
  82.2839314  10.3595499  22.8234823  87.8586172  16.8261302  20.2306024
  87.2860139  17.4451489  19.7776495  88.4318966  17.3760663  20.7645946
  91.0783432  17.1098452  21.3614606  92.0114105  17.0444013  21.5647481
  90.9906645  17.9454719  20.9029139  88.1271663  12.2139860  39.0322733
  89.0474673  12.3918459  39.2262780  88.0921246  11.2695906  38.8802432
  77.3453828   7.4078454  27.9576008  77.0256613   6.5543762  27.6650382
  76.7987256   7.6227032  28.7133975  81.1233736  10.1240895  31.6745514
  81.3419746  11.0558003  31.6933548  81.5359510   9.7648870  32.4600318
  77.2142088  11.0281366  29.9269129  76.5205560  10.6135318  29.4139084
  77.9615079  11.0701902  29.3302548  85.8592871   9.1271240  39.8813325
  85.3759953   9.9271600  40.0877214  85.9453810   9.1379185  38.9280769
  79.1278831  10.9599619  27.8035144  79.1049519  11.0587307  26.8517027
  79.4379467  11.8064770  28.1252310  81.7866209  13.0175774  31.9181759
  82.7409462  12.9859717  31.8511690  81.5878732  12.5566398  32.7331985
  82.3765591  11.5876890  34.4852556  83.1958480  12.0820969  34.5087394
  82.6502398  10.6708859  34.4570124  80.1416437  18.5595394  28.9351957
  80.0070905  17.7995795  28.3689955  79.7248500  19.2836294  28.4680745
  83.2985563  19.4564711  29.1470399  83.1817947  20.4010143  29.0449089
  82.4778010  19.1538273  29.5356198  77.6300505   5.9215024  35.1844753
  78.2759369   5.4113978  35.6731979  77.4217656   6.6583706  35.7588179
  90.1553897  12.9895872  40.6836894  91.0245057  13.1636524  40.3223529
  89.6760649  13.8090289  40.5612623  84.3240077  20.1092973  32.3626328
  85.2267324  20.1416583  32.6792823  84.0977447  19.1793424  32.3772663
  86.0793679  18.8623959  29.0236406  85.1289310  18.8625821  28.9100778
  86.3826166  18.1156694  28.5072441 101.8146373  24.6984498  30.0882169
 102.4524783  24.5791245  29.3845509 101.6967216  25.6465342  30.1470121
  98.6236079  24.6511926  30.0243693  98.2854591  24.5352991  29.1364228
  99.4925847  24.2503091  30.0044699  94.4822895  26.5047402  26.0140584
  93.9187760  26.4137339  25.2456872  94.3675290  25.6847307  26.4943077
  99.1055862  25.8046778  35.9829899  99.0944503  25.4099576  35.1110402
  99.2676502  25.0712850  36.5763670  92.0287327  27.9998594  28.8524805
  92.8208619  27.6589419  28.4371104  92.2683977  28.1093569  29.7726958
 100.0622454  30.1718370  21.3255049  99.4110433  30.7572450  20.9389063
 100.8566816  30.7024565  21.3850087  93.9878081  27.2607507  21.7242183
  94.7608957  26.7136494  21.5855059  94.3403480  28.1251756  21.9356645
  95.8263123  28.5883889  34.9309083  95.5352989  29.4929520  34.8155749
  96.4620108  28.6300417  35.6453152  96.7519330  25.9660738  31.5210442
  97.3482902  25.7416760  30.8067405  96.8094302  25.2245483  32.1235890
  96.3244359  23.4200173  19.3560633  96.5769879  22.8981695  18.5944096
  95.3868918  23.2566319  19.4587317 101.3687641  22.4235952  27.1635377
 102.1550731  22.0055375  26.8125794 101.6326346  23.3282044  27.3317025
 101.5397719  27.8608802  21.8624033 100.9043552  27.9343428  22.5744938
 101.2095125  28.4502401  21.1843113 106.7696069  22.3611185  28.0668355
 107.5021240  21.7910402  28.3006185 106.0135424  21.9732785  28.5074861
  96.0440647  25.3228279  21.5585008  95.9276905  24.6473183  22.2266093
  96.1542907  24.8360653  20.7417161  98.3872188  24.7838426  25.2631698
  98.0230395  24.2569047  25.9744619  99.2439304  24.3936895  25.0898183
 104.2921489  16.0732759  32.5262964 103.9604814  16.9428170  32.3024179
 103.6967102  15.7569043  33.2056994 100.7853008  28.2745305  31.9258876
 100.4853731  29.1770344  31.8174684 100.4404068  28.0077488  32.7780029
  94.2365490  24.7259102  27.9595581  93.3115986  24.5935316  28.1673273
  94.4849903  25.5053321  28.4565523 104.1850152  20.7927845  29.6056314
 103.2767030  20.7243254  29.3115075 104.1337748  21.2699790  30.4338139
  98.0066896  22.2685984  21.2439713  97.8866521  22.7143034  22.0825193
  97.3119484  22.6171301  20.6853251  91.5974301  24.3692375  28.7939370
  91.7266682  24.6226854  29.7078782  90.9171752  24.9620083  28.4744025
  95.7673788  35.0389625  24.8929844  95.6897818  35.9897450  24.9718325
  95.1635432  34.6935498  25.5504770  98.2591018  22.2117491  37.5491211
  97.4824352  22.7711411  37.5394076  98.8981581  22.6974274  38.0706081
 106.0511799  18.9944284  31.3834188 105.4086179  19.2876817  30.7373982
 105.5466727  18.8797204  32.1887384  96.5137390  25.0202944  37.1109178
  97.2552075  25.5587988  36.8344002  95.8074376  25.6469233  37.2680730
 101.9892730  27.1632085  35.7081340 102.3976086  26.7214495  34.9635972
 101.2669991  26.5884712  35.9615532  98.3423800  22.1004691  33.0814897
  99.1884995  22.5244105  33.2249546  98.2822438  21.4438316  33.7753460
 102.3121545  27.7233275  29.4633628 101.6830407  27.8878989  28.7609696
 101.9247207  28.1374885  30.2344592 106.1910776  28.6587713  26.8177992
 105.5061815  29.0386614  26.2675026 106.2754626  29.2683040  27.5509940
 101.4923245  19.7609060  34.7396070 101.2484177  20.5151120  34.2030346
 101.7683176  20.1394407  35.5743317 103.4461708  26.3047672  33.4173336
 103.6578603  26.9479432  32.7407717 103.3991456  25.4709989  32.9495266
 101.0487937  18.9165493  30.3209908 100.1872416  19.2146746  30.6126645
 101.0750372  19.1335892  29.3890941  97.8649506  27.4607683  26.7283714
  98.3287852  27.7395386  25.9388336  97.6006305  26.5591128  26.5456804
  94.7573588  27.0079165  29.6663477  95.3274945  27.4366433  29.0280961
  95.3481699  26.7261749  30.3647662  96.8018392  23.5830836  23.5373279
  97.5042436  24.0351879  24.0047205  96.4699021  22.9414654  24.1653172
  95.2498754  22.1742592  37.9124488  94.6197415  22.8558873  38.1459885
  95.1434842  22.0625674  36.9677626  90.5443726  21.8414388  28.8390412
  89.7542780  22.0971917  28.3630523  91.0354974  22.6562726  28.9442453
 104.5607536  29.1819627  31.5895693 105.3824980  28.7799815  31.3078375
 104.5569939  29.0787862  32.5411809  92.4958472  22.2058968  25.7973889
  91.6989635  22.3177662  26.3157385  92.2684064  22.5445620  24.9314779
  98.3264139  28.7303671  33.7456404  98.3908572  29.1924078  34.5814575
  97.6175063  28.1001036  33.8738713  88.8281429  22.0944879  31.2705403
  89.0789468  22.9791889  31.5362979  89.3640978  21.9149480  30.4980495
  98.0412157  30.3971778  23.6135384  97.9057832  31.2423314  24.0420232
  98.5821970  30.5991056  22.8501318  94.5279497  16.4763358  40.2749739
  94.1346442  15.9229557  40.9497383  95.3445637  16.7873937  40.6656257
  91.4941555  27.9147216  24.1863309  92.0066075  28.7090467  24.3368874
  92.1464267  27.2173507  24.1196910  93.3036439  31.0312973  26.2686062
  93.4803068  31.9530937  26.0807046  94.0993273  30.7171392  26.6980442
  97.4447458  17.8921237  37.8669996  98.1857171  18.4928390  37.7874458
  97.6765381  17.1498875  37.3088038  92.5888796  23.0777604  36.1448225
  92.4742311  22.1762862  36.4455324  91.7333314  23.3241301  35.7933042
  99.6680633  31.0195345  37.7435726  99.2244488  30.2331723  37.4256630
 100.3297847  31.2074495  37.0779617  94.4267755  32.5491146  32.2696404
  94.9775180  32.4208210  31.4973398  93.5879231  32.8486035  31.9191297
 101.7661872  31.2998145  35.7717127 101.7480347  32.1207026  35.2797396
 102.6881792  31.1752220  35.9967268  98.2234926  28.8142274  36.6140636
  98.7563263  28.0530562  36.3839944  97.6949007  28.5215926  37.3564790
 101.3904621  13.9202340  32.1434277 101.0468890  14.8103982  32.0673388
 101.7583583  13.7303998  31.2803862  89.4590471  26.2435871  24.9622880
  90.2965693  26.6532879  24.7456587  89.6368739  25.3035313  24.9323073
  98.9402014  18.7560652  25.7091951  98.0843611  18.3667502  25.5297590
  99.3528966  18.8352613  24.8491736 100.4701161  16.2906995  30.1083511
  99.9665957  16.2537130  29.2951316 100.7631768  17.1999738  30.1680167
  96.7144047  16.3745725  29.1149692  97.5797044  16.1788534  28.7555582
  96.7821556  16.1456077  30.0419049  99.5887638  27.9428267  24.1259448
  99.0609000  27.2081026  23.8132685  99.0875141  28.7202943  23.8799416
 104.5680484  26.1377287  29.2426494 103.9104159  26.8276549  29.3306623
 105.3720884  26.5273719  29.5860480  94.3206366  18.6047933  26.4866059
  94.8950118  18.3823114  25.7539252  94.9077348  18.6736627  27.2394660
 103.3785943  24.4921660  27.2930436 103.8917825  25.1251652  27.7952145
 104.0287167  23.8922855  26.9273796  94.6475953  20.6352394  20.5061944
  93.8113265  20.9727080  20.8271219  94.5080723  20.5001374  19.5689081
  96.6229034  15.4789182  25.2141129  95.9693446  15.1638199  24.5897743
  96.5809508  14.8564922  25.9400952 100.6408317  34.4705984  20.0491107
  99.9670016  34.7737681  20.6576065 101.0274139  35.2735064  19.6996564
  99.8566774  21.9671115  29.5388776  98.9389335  22.1886062  29.3810464
 100.2726918  22.0417426  28.6800484 100.6401822  23.3662531  24.6691456
 101.3873641  23.8783928  24.3598579 100.9093411  23.0446584  25.5295850
  98.9128472  25.8621072  21.6518411  98.0039691  25.5780105  21.7490881
  98.9423556  26.2820150  20.7921718 104.1447739  29.4727661  25.4209578
 103.6910067  28.6318571  25.4774769 103.5141706  30.1089060  25.7584358
 103.0880659  20.4019647  26.6510246 102.3503416  19.8897034  26.9820488
 103.3407433  19.9620029  25.8393523 102.5880679  31.3104158  26.3559396
 102.8803653  31.8709215  25.6371762 103.0979299  31.6032719  27.1112556
  89.4816642  23.5826586  25.6333613  89.2841042  22.9895947  24.9084680
  88.9263306  23.2778796  26.3509552  97.4613366  23.4749692  27.7528206
  97.5161976  22.5223529  27.6770683  96.6504568  23.6309131  28.2369505
  98.6104560  27.4029815  18.9906489  98.1723990  26.6865674  18.5312127
  99.3515001  27.6305930  18.4291581  95.4005726  22.0926752  25.5118585
  94.5873592  22.3920923  25.9183777  95.8964720  21.6982441  26.2293067
  97.5514304  32.0884509  27.4452850  97.5090483  32.3145355  26.5161382
  98.4677003  31.8547884  27.5938651 100.9979938  22.5568577  34.3433479
 101.3529325  22.7840050  35.2027945 101.6452069  22.8886953  33.7210734
  94.8919801  19.6645108  31.1279820  95.5319180  19.5233867  30.4302783
  94.0597331  19.3779621  30.7518422 106.7547054  27.7463539  30.0594079
 107.1883561  27.6538829  30.9077133 107.4678635  27.7221040  29.4214095
  95.6680105  28.9647538  27.2414812  96.4620703  28.4697858  27.0397387
  94.9571797  28.4365401  26.8782518 100.4874949  31.3465634  31.5927180
 100.5411971  31.9156570  32.3604896  99.6189731  31.5167519  31.2281217
  91.9762868  23.1090620  23.3174565  91.0460456  23.0475075  23.5344527
  92.0720340  22.5866573  22.5211206  91.8948417  19.6345433  25.9052807
  92.1555234  20.5490766  25.7961967  92.7165590  19.1669875  26.0549420
  93.3673343  21.0483190  33.0751631  94.0396396  20.8400552  32.4264280
  92.5403129  20.8505276  32.6356864 107.6162604  27.7887240  32.5926965
 107.8098494  28.6933051  32.8386240 107.5163222  27.3294659  33.4265550
  99.2698915  17.6745131  35.0917292  98.6226830  18.3735080  34.9981769
 100.0399930  18.1081275  35.4593540 102.6777712  27.9393983  38.1667845
 102.5263219  27.7104535  37.2497929 102.6682392  28.8964584  38.1799190
  99.4463049  25.5125896  33.1514112 100.3755109  25.6637055  32.9783079
  99.0254079  25.6009916  32.2962758  98.2451381  29.5376560  30.9212649
  98.1062466  29.1695344  31.7938588  97.4565977  30.0524199  30.7496607
  98.8399533  34.6385657  22.2638186  99.0151288  34.1673700  23.0783809
  98.1532321  35.2651423  22.4919447  99.7956596  28.9158163  28.3101487
  99.4606428  28.8758933  29.2059137  99.2960541  28.2502879  27.8371898
  93.7700840  24.3225793  33.8354068  93.6320638  23.5906032  34.4365607
  94.6805763  24.2334693  33.5538256  96.3983140  24.0345752  33.3237748
  97.1082759  23.3938944  33.2824367  96.3552449  24.2858647  34.2463929
 104.3869919  30.9713105  36.2444327 104.3282465  30.2872326  35.5774910
 104.7889437  31.7132095  35.7924953  95.1112074  21.0210970  35.1433388
  94.5749431  20.5701708  35.7954984  94.5228783  21.1556879  34.4003852
  93.4060618  37.7875019  29.0378046  93.6457216  38.4193543  29.7157065
  92.5629814  37.4363059  29.3243405 104.3887326  28.9352689  34.4758307
 103.5014105  28.5978611  34.5984706 104.9585877  28.2035721  34.7127072
  86.0416473  25.2676781  27.8001358  86.7287513  24.9538511  27.2122374
  85.8864602  26.1718146  27.5268610  90.8451196  20.1566978  32.2286382
  90.7609384  19.5492647  31.4936792  90.0233902  20.6475996  32.2295878
  97.9188480  33.5954142  31.4419550  97.8458651  34.4009113  31.9538855
  97.4765873  33.7946108  30.6167572  97.7078259  32.8325912  24.9522372
  96.9245781  33.3747592  25.0460596  98.4071005  33.3499891  25.3516613
 101.0174910  18.6420541  27.5956577 101.5143609  17.8890504  27.2757647
 100.2461891  18.6784858  27.0299786 108.8704667  24.3460907  29.2374869
 108.8594543  25.2285622  28.8668802 108.0022046  23.9932458  29.0429406
 100.3787163  33.4940976  33.5977709 101.0915136  34.1288441  33.5253610
  99.8877192  33.5904842  32.7817711 102.1004690  27.3992228  25.1695000
 101.1660969  27.5193691  24.9999705 102.2781359  26.4964695  24.9055010
  97.6009878  20.7837924  27.3228262  97.2307666  20.2308965  28.0109167
  98.0968971  20.1796058  26.7703262 105.4877242  23.2409548  25.7045035
 105.9537694  24.0737539  25.6305337 105.9384742  22.7754529  26.4090293
  95.4299077  31.2435419  34.4183280  96.1308536  31.8771902  34.5712674
  94.9594192  31.5850151  33.6578919 103.5553473  29.5853369  22.7031187
 103.8313317  29.4709964  23.6125061 102.6857971  29.1870854  22.6643360
 103.4593904  15.6090135  29.7435936 102.5456984  15.8394362  29.9118143
 103.8887006  15.6928579  30.5949968 103.2300363  23.7980027  32.2435830
 102.5771813  24.0455934  31.5888283 103.6080743  22.9844165  31.9098307
 100.1907537  33.8339720  26.3464000 100.3729931  33.0161376  26.8091753
 101.0140523  34.0507412  25.9088890 100.5249702  32.7607905  23.6079049
 101.0537469  32.2500360  22.9949211 100.7877922  32.4450435  24.4724582
  99.2787936  24.5399838  38.7301867  98.6028573  24.4393967  39.4004242
 100.1015570  24.3839051  39.1937864  91.0266795  30.7771774  31.3514382
  91.6120232  30.0315462  31.4842287  90.8291633  31.0875731  32.2351046
  93.8805450  33.8123022  26.3676825  93.2115825  34.2969149  25.8840865
  93.7418320  34.0592242  27.2820203  85.6184450  23.3477374  30.0718825
  85.6568549  22.8140965  30.8655944  85.1124742  22.8212580  29.4529803
  98.0210719  35.8466765  32.9659483  98.5729027  36.0098387  33.7308568
  98.3616912  36.4371203  32.2939508  92.9975212  18.1941915  33.5681368
  93.0616538  19.0556746  33.1558765  92.9342332  17.5815917  32.8353726
  92.4727484  20.2665048  37.2154402  93.0999523  19.8842125  37.8291926
  91.6155403  20.0479249  37.5810095 102.8721593  30.6728023  38.8208138
 103.4161497  31.2857981  38.3263092 102.2908438  31.2307601  39.3375151
  89.2493027  22.0741477  23.1472757  89.5446468  21.1652155  23.0939811
  88.3481063  22.0529216  22.8253759 101.1579106  33.7948741  29.9523165
 101.0330245  32.9938481  29.4434111 101.8158197  34.2894934  29.4637135
  92.7787274  20.1497473  29.1300305  92.0573860  20.7633441  28.9907779
  93.5680530  20.6855238  29.0516951 103.2214014  31.5957761  31.5802715
 102.2744350  31.4763112  31.5081042 103.5696787  30.7080259  31.6628977
  95.5813588  17.4851900  35.4040957  96.1047990  17.7314196  36.1667267
  95.3625921  18.3171935  34.9844095  90.9780869  19.7555574  23.2712082
  90.6493575  18.8752953  23.0887188  91.3320239  19.7003243  24.1588471
 100.2260448  31.3910477  27.7807068 100.0785410  30.4627184  27.9614638
 101.0513941  31.4130568  27.2964143  94.0922692  20.0428544  23.6387560
  94.4318764  20.5714465  22.9166168  94.5394812  20.3808950  24.4146126
 103.8294569  32.2139036  28.8671940 104.7541117  32.0081897  28.7296391
 103.6609873  31.9655437  29.7761282  96.7866133  18.4265595  33.0890628
  96.4462953  17.6273408  33.4911308  96.0805139  18.7267306  32.5167461
  97.4382605  15.5114907  31.5417951  98.2608674  15.0375385  31.4196841
  97.6820668  16.2905391  32.0416637  96.0790839  18.5403166  21.8380852
  96.7999202  18.9184418  21.3344569  95.4556143  19.2592042  21.9415830
  94.9621183  22.2034028  29.3509929  94.8165764  22.5174331  30.2434211
  94.4846387  22.8218928  28.7980828  96.8217566  19.1936576  29.3990819
  96.8079135  18.2977669  29.0623117  97.5389994  19.2007240  30.0329105
  98.6743697  19.6273916  31.4443946  98.4161475  20.5490987  31.4428277
  98.1428737  19.2304351  32.1344411 103.6189886  32.7324703  24.2234032
 103.7926763  32.1671126  23.4707884 104.1118777  33.5325598  24.0413522
  89.4366846  24.7439372  32.2897591  88.8920314  25.5199180  32.4217865
  90.3146195  25.0910177  32.1316712  96.2254462  18.0750956  24.6678389
  96.3470373  17.1467602  24.8669277  95.9356505  18.0889642  23.7556705
  99.0945653  15.7605867  27.8045109  99.1167349  15.8245200  26.8497088
  99.5113712  14.9210375  27.9985615 104.6065058  32.0491468  21.3230930
 105.3015963  32.6698160  21.5418245 104.9488208  31.1986819  21.5983308
  90.2232867  23.8709269  35.1827747  89.4814603  24.0191904  35.7692378
  89.9025612  24.1317534  34.3194497  98.1676530  33.4125247  34.9808137
  98.4763656  33.1674394  35.8530837  98.9652012  33.6171885  34.4927008
  98.1897142  35.5663156  27.2113514  97.7502132  35.0739535  27.9046371
  98.9405259  35.0236124  26.9705589  90.6689481  31.7574697  27.2138142
  91.4947501  31.4578469  26.8336786  90.3183533  30.9882320  27.6627931
  95.6371014  31.1101165  29.2835816  95.0151024  30.4471871  28.9838044
  96.3075881  31.1362297  28.6009463  88.8698086  29.6761024  28.1727076
  88.0329994  29.2483198  27.9911077  88.8421732  29.8693467  29.1097867
  95.7095542  19.5882954  38.8768322  95.7583697  20.4645076  38.4946091
  96.2518056  19.0460347  38.3039965 106.1950387  30.1324077  38.1569459
 105.4045931  30.1148216  37.6173958 105.9583742  30.6712370  38.9118495
 106.3148262  26.9816543  35.4702187 106.3646267  26.8166551  36.4117710
 106.2062186  26.1143802  35.0800068  95.1984521  29.6605089  22.7594276
  95.3472641  30.3440553  22.1060949  96.0050965  29.6410179  23.2743732
 103.6052025  22.9647471  36.7861494 104.5061888  22.8253936  36.4945492
 103.6799999  23.1301926  37.7259671  97.9394830  20.3414326  35.6314680
  97.0698140  20.6347892  35.3597269  98.1754311  20.9254771  36.3521944
 107.8166459  29.4013485  35.7144209 107.5251268  29.7643465  36.5507670
 107.2038591  28.6880493  35.5357541 109.0162142  26.9666364  28.2346779
 109.8509033  27.4056168  28.3984339 109.1521270  26.4905018  27.4155025
 106.0653648  24.5246099  34.1824267 106.5407769  24.7173746  33.3743118
 105.1419213  24.5805285  33.9367650  92.9537154  25.6870266  23.7655345
  92.7083196  24.7832596  23.9635555  93.1233069  25.6887417  22.8234823
 100.6433864  16.5593943  33.1480101 101.1615808  17.2954970  32.8226589
 100.2888997  16.8657936  33.9826860  92.2232802  21.4198624  21.2641507
  91.5302047  21.4942979  20.6081543  91.9784554  20.6558968  21.7863023
  98.6979927  32.1553219  20.2306024  98.1253894  32.7743406  19.7776495
  99.2712720  32.7052581  20.7645946 104.7655317  21.4011859  32.4152572
 105.7172739  21.5009957  32.4364796 104.5958767  20.6090128  32.9250657
 102.7869696  18.4867443  32.6011973 102.1919628  18.7672455  31.9058462
 102.5019393  18.9761344  33.3728714 101.9177186  32.4390369  21.3614606
 102.8507860  32.3735931  21.5647481 101.8300399  33.2746636  20.9029139
 107.2443394  24.6217979  31.5294872 107.2119714  23.6833980  31.7154556
 107.8544018  24.7002016  30.7960697 107.3937883  21.4129022  31.5753155
 106.8776931  20.6287479  31.3883084 108.2777831  21.0847739  31.7399675
  98.9665418  27.5431778  39.0322733  99.8868427  27.7210377  39.2262780
  98.9315001  26.5987824  38.8802432  88.1847583  22.7370372  27.9576008
  87.8650367  21.8835680  27.6650382  87.6381011  22.9518950  28.7133975
  91.9627490  25.4532813  31.6745514  92.1813500  26.3849921  31.6933548
  92.3753264  25.0940787  32.4600318  96.8355356  21.0266019  41.0648263
  96.7352082  21.9760376  40.9960354  96.6176898  20.6984257  40.1924333
  88.0535843  26.3573283  29.9269129  87.3599314  25.9427236  29.4139084
  88.8008834  26.3993820  29.3302548  96.6986626  24.4563157  39.8813325
  96.2153707  25.2563518  40.0877214  96.7847565  24.4671102  38.9280769
  89.9672585  26.2891537  27.8035144  89.9443273  26.3879224  26.8517027
  90.2773222  27.1356688  28.1252310  92.6259963  28.3467692  31.9181759
  93.5803217  28.3151634  31.8511690  92.4272487  27.8858316  32.7331985
  93.2159345  26.9168808  34.4852556  94.0352234  27.4112887  34.5087394
  93.4896153  26.0000776  34.4570124  90.9810192  33.8887312  28.9351957
  90.8464660  33.1287713  28.3689955  90.5642254  34.6128211  28.4680745
 102.9466965  24.8234096  24.0630802 102.8902167  25.2802648  23.2238434
 103.4995308  24.0624781  23.8853645  94.1379318  34.7856629  29.1470399
  94.0211702  35.7302061  29.0449089  93.3171764  34.4830190  29.5356198
  88.4694259  21.2506942  35.1844753  89.1153123  20.7405896  35.6731979
  88.2611411  21.9875624  35.7588179 100.9947652  28.3187790  40.6836894
 101.8638811  28.4928442  40.3223529 100.5154403  29.1382206  40.5612623
  95.1633832  35.4384891  32.3626328  96.0661079  35.4708501  32.6792823
  94.9371202  34.5085341  32.3772663  96.9187434  34.1915877  29.0236406
  95.9683065  34.1917739  28.9100778  97.2219920  33.4448612  28.5072441
  92.8091750  18.3974559  39.2819768  93.6723212  18.0411364  39.4923092
  92.2357161  18.0588454  39.9695172 109.4629834  39.9803844  30.0243693
 109.1248345  39.8644908  29.1364228 110.3319602  39.5795009  30.0044699
 105.3216649  41.8339320  26.0140584 104.7581515  41.7429257  25.2456872
 105.2069044  41.0139224  26.4943077 109.9449617  41.1338695  35.9829899
 109.9338257  40.7391494  35.1110402 110.1070256  40.4004768  36.5763670
 102.8681081  43.3290512  28.8524805 103.6602373  42.9881336  28.4371104
 103.1077731  43.4385487  29.7726958 104.8271835  42.5899425  21.7242183
 105.6002711  42.0428412  21.5855059 105.1797234  43.4543674  21.9356645
 106.6656878  43.9175807  34.9309083 106.3746744  44.8221438  34.8155749
 107.3013862  43.9592335  35.6453152 107.5913085  41.2952656  31.5210442
 108.1876657  41.0708678  30.8067405 107.6488056  40.5537401  32.1235890
 107.1638113  38.7492091  19.3560633 107.4163634  38.2273612  18.5944096
 106.2262672  38.5858236  19.4587317 106.8834402  40.6520197  21.5585008
 106.7670660  39.9765100  22.2266093 106.9936662  40.1652571  20.7417161
 109.2265943  40.1130344  25.2631698 108.8624150  39.5860965  25.9744619
 110.0833059  39.7228813  25.0898183 105.0759244  40.0551019  27.9595581
 104.1509741  39.9227234  28.1673273 105.3243658  40.8345239  28.4565523
 108.8460651  37.5977901  21.2439713 108.7260276  38.0434952  22.0825193
 108.1513239  37.9463219  20.6853251 102.4368055  39.6984293  28.7939370
 102.5660437  39.9518772  29.7078782 101.7565507  40.2912001  28.4744025
 106.6067543  50.3681543  24.8929844 106.5291572  51.3189368  24.9718325
 106.0029186  50.0227415  25.5504770 109.0984772  37.5409408  37.5491211
 108.3218107  38.1003329  37.5394076 109.7375336  38.0266191  38.0706081
 107.3531145  40.3494862  37.1109178 108.0945829  40.8879906  36.8344002
 106.6468130  40.9761150  37.2680730 109.1817554  37.4296609  33.0814897
 110.0278750  37.8536023  33.2249546 109.1216192  36.7730233  33.7753460
 108.7043261  42.7899601  26.7283714 109.1681606  43.0687304  25.9388336
 108.4400059  41.8883046  26.5456804 105.5967342  42.3371082  29.6663477
 106.1668699  42.7658351  29.0280961 106.1875454  42.0553667  30.3647662
 107.6412147  38.9122753  23.5373279 108.3436190  39.3643797  24.0047205
 107.3092775  38.2706572  24.1653172 106.0892509  37.5034510  37.9124488
 105.4591169  38.1850791  38.1459885 105.9828596  37.3917592  36.9677626
 101.3837481  37.1706306  28.8390412 100.5936535  37.4263834  28.3630523
 101.8748728  37.9854644  28.9442453 103.3352226  37.5350885  25.7973889
 102.5383390  37.6469579  26.3157385 103.1077819  37.8737537  24.9314779
 109.1657894  44.0595588  33.7456404 109.2302326  44.5215996  34.5814575
 108.4568818  43.4292953  33.8738713  99.6675184  37.4236796  31.2705403
  99.9183222  38.3083806  31.5362979 100.2034732  37.2441398  30.4980495
 108.8805912  45.7263696  23.6135384 108.7451586  46.5715232  24.0420232
 109.4215724  45.9282974  22.8501318 105.3673251  31.8055276  40.2749739
 104.9740197  31.2521474  40.9497383 106.1839392  32.1165854  40.6656257
 102.3335309  43.2439134  24.1863309 102.8459830  44.0382384  24.3368874
 102.9858022  42.5465424  24.1196910 104.1430194  46.3604890  26.2686062
 104.3196822  47.2822855  26.0807046 104.9387027  46.0463309  26.6980442
 108.2841212  33.2213155  37.8669996 109.0250926  33.8220308  37.7874458
 108.5159135  32.4790793  37.3088038 103.4282550  38.4069522  36.1448225
 103.3136065  37.5054779  36.4455324 102.5727068  38.6533219  35.7933042
 105.2661509  47.8783064  32.2696404 105.8168934  47.7500127  31.4973398
 104.4272985  48.1777953  31.9191297 109.0628680  44.1434192  36.6140636
 109.5957017  43.3822480  36.3839944 108.5342761  43.8507844  37.3564790
 100.2984226  41.5727788  24.9622880 101.1359448  41.9824797  24.7456587
 100.4762493  40.6327230  24.9323073 109.7795769  34.0852570  25.7091951
 108.9237365  33.6959420  25.5297590 110.1922721  34.1644530  24.8491736
 107.5537801  31.7037643  29.1149692 108.4190798  31.5080451  28.7555582
 107.6215310  31.4747994  30.0419049 110.4281393  43.2720184  24.1259448
 109.9002754  42.5372944  23.8132685 109.9268896  44.0494861  23.8799416
 105.1600121  33.9339851  26.4866059 105.7343872  33.7115032  25.7539252
 105.7471103  34.0028545  27.2394660 105.4869708  35.9644312  20.5061944
 104.6507020  36.3018998  20.8271219 105.3474477  35.8293291  19.5689081
 107.4622788  30.8081099  25.2141129 106.8087201  30.4930117  24.5897743
 107.4203262  30.1856840  25.9400952 109.7522227  41.1912989  21.6518411
 108.8433446  40.9072022  21.7490881 109.7817310  41.6112068  20.7921718
 100.3210397  38.9118504  25.6333613 100.1234797  38.3187864  24.9084680
  99.7657061  38.6070714  26.3509552 108.3007121  38.8041610  27.7528206
 108.3555730  37.8515446  27.6770683 107.4898323  38.9601049  28.2369505
 109.4498314  42.7321733  18.9906489 109.0117744  42.0157592  18.5312127
 110.1908755  42.9597848  18.4291581 106.2399480  37.4218670  25.5118585
 105.4267346  37.7212840  25.9183777 106.7358475  37.0274359  26.2293067
 108.3908058  47.4176427  27.4452850 108.3484237  47.6437273  26.5161382
 109.3070757  47.1839801  27.5938651 105.7313555  34.9937025  31.1279820
 106.3712935  34.8525784  30.4302783 104.8991086  34.7071539  30.7518422
 106.5073859  44.2939456  27.2414812 107.3014458  43.7989776  27.0397387
 105.7965552  43.7657319  26.8782518 102.8156623  38.4382537  23.3174565
 101.8854211  38.3766993  23.5344527 102.9114095  37.9158490  22.5211206
 102.7342172  34.9637350  25.9052807 102.9948989  35.8782684  25.7961967
 103.5559344  34.4961793  26.0549420 104.2067097  36.3775107  33.0751631
 104.8790150  36.1692470  32.4264280 103.3796884  36.1797193  32.6356864
 109.0845135  44.8668478  30.9212649 108.9456221  44.4987262  31.7938588
 108.2959731  45.3816117  30.7496607 109.6793287  49.9677574  22.2638186
 109.8545043  49.4965617  23.0783809 108.9926075  50.5943340  22.4919447
 104.6094594  39.6517710  33.8354068 104.4714392  38.9197949  34.4365607
 105.5199518  39.5626611  33.5538256 107.2376895  39.3637670  33.3237748
 107.9476513  38.7230862  33.2824367 107.1946203  39.6150565  34.2463929
 105.9505829  36.3502888  35.1433388 105.4143186  35.8993626  35.7954984
 105.3622537  36.4848796  34.4003852 104.2454372  53.1166937  29.0378046
 104.4850971  53.7485461  29.7157065 103.4023569  52.7654977  29.3243405
  96.8810228  40.5968699  27.8001358  97.5681268  40.2830429  27.2122374
  96.7258357  41.5010063  27.5268610 101.6844950  35.4858895  32.2286382
 101.6003139  34.8784565  31.4936792 100.8627657  35.9767914  32.2295878
 108.7582234  48.9246059  31.4419550 108.6852406  49.7301031  31.9538855
 108.3159627  49.1238025  30.6167572 108.5472014  48.1617829  24.9522372
 107.7639536  48.7039510  25.0460596 109.2464759  48.6791809  25.3516613
 108.4403633  36.1129842  27.3228262 108.0701420  35.5600882  28.0109167
 108.9362725  35.5087975  26.7703262 106.2692831  46.5727337  34.4183280
 106.9702291  47.2063820  34.5712674 105.7987946  46.9142068  33.6578919
 101.8660549  46.1063692  31.3514382 102.4513986  45.3607380  31.4842287
 101.6685388  46.4167649  32.2351046 104.7199205  49.1414939  26.3676825
 104.0509580  49.6261067  25.8840865 104.5812074  49.3884160  27.2820203
  96.4578204  38.6769292  30.0718825  96.4962304  38.1432883  30.8655944
  95.9518497  38.1504498  29.4529803 108.8604473  51.1758683  32.9659483
 109.4122781  51.3390304  33.7308568 109.2010667  51.7663121  32.2939508
 103.8368966  33.5233833  33.5681368 103.9010293  34.3848664  33.1558765
 103.7736087  32.9107834  32.8353726 103.3121239  35.5956965  37.2154402
 103.9393278  35.2134043  37.8291926 102.4549158  35.3771167  37.5810095
 100.0886782  37.4033394  23.1472757 100.3840223  36.4944073  23.0939811
  99.1874817  37.3821134  22.8253759 103.6181029  35.4789391  29.1300305
 102.8967614  36.0925359  28.9907779 104.4074284  36.0147156  29.0516951
 106.4207342  32.8143817  35.4040957 106.9441744  33.0606114  36.1667267
 106.2019675  33.6463852  34.9844095 101.8174623  35.0847492  23.2712082
 101.4887329  34.2044871  23.0887188 102.1713994  35.0295161  24.1588471
 104.9316446  35.3720462  23.6387560 105.2712519  35.9006383  22.9166168
 105.3788567  35.7100868  24.4146126 107.6259887  33.7557512  33.0890628
 107.2856708  32.9565326  33.4911308 106.9198894  34.0559223  32.5167461
 108.2776359  30.8406825  31.5417951 109.1002428  30.3667303  31.4196841
 108.5214423  31.6197309  32.0416637 106.9184594  33.8695083  21.8380852
 107.6392956  34.2476336  21.3344569 106.2949898  34.5883960  21.9415830
 105.8014938  37.5325946  29.3509929 105.6559519  37.8466249  30.2434211
 105.3240141  38.1510846  28.7980828 107.6611321  34.5228494  29.3990819
 107.6472889  33.6269587  29.0623117 108.3783749  34.5299157  30.0329105
 109.5137451  34.9565834  31.4443946 109.2555229  35.8782904  31.4428277
 108.9822492  34.5596268  32.1344411 100.2760600  40.0731290  32.2897591
  99.7314068  40.8491098  32.4217865 101.1539950  40.4202094  32.1316712
 107.0648217  33.4042874  24.6678389 107.1864128  32.4759520  24.8669277
 106.7750259  33.4181560  23.7556705 109.9339407  31.0897784  27.8045109
 109.9561104  31.1537117  26.8497088 110.3507466  30.2502293  27.9985615
 101.0626622  39.2001186  35.1827747 100.3208358  39.3483822  35.7692378
 100.7419366  39.4609452  34.3194497 109.0070285  48.7417164  34.9808137
 109.3157411  48.4966311  35.8530837 109.8045767  48.9463803  34.4927008
 109.0290897  50.8955074  27.2113514 108.5895887  50.4031453  27.9046371
 109.7799014  50.3528042  26.9705589 101.5083236  47.0866615  27.2138142
 102.3341255  46.7870387  26.8336786 101.1577288  46.3174237  27.6627931
 106.4764769  46.4393083  29.2835816 105.8544778  45.7763788  28.9838044
 107.1469636  46.4654215  28.6009463  99.7091841  45.0052941  28.1727076
  98.8723749  44.5775116  27.9911077  99.6815486  45.1985385  29.1097867
 106.5489296  34.9174871  38.8768322 106.5977452  35.7936994  38.4946091
 107.0911810  34.3752264  38.3039965 106.0378276  44.9897007  22.7594276
 106.1866396  45.6732471  22.1060949 106.8444719  44.9702097  23.2743732
 108.7788585  35.6706244  35.6314680 107.9091894  35.9639810  35.3597269
 109.0148065  36.2546689  36.3521944 103.7930909  41.0162184  23.7655345
 103.5476951  40.1124514  23.9635555 103.9626823  41.0179335  22.8234823
 103.0626556  36.7490542  21.2641507 102.3695801  36.8234897  20.6081543
 102.8178308  35.9850885  21.7863023 109.5373681  47.4845137  20.2306024
 108.9647648  48.1035324  19.7776495 110.1106475  48.0344499  20.7645946
  99.0241337  38.0662290  27.9576008  98.7044122  37.2127598  27.6650382
  98.4774765  38.2810868  28.7133975 102.8021245  40.7824731  31.6745514
 103.0207255  41.7141838  31.6933548 103.2147019  40.4232705  32.4600318
 107.6749110  36.3557936  41.0648263 107.5745837  37.3052293  40.9960354
 107.4570652  36.0276175  40.1924333  98.8929597  41.6865201  29.9269129
  98.1993069  41.2719154  29.4139084  99.6402588  41.7285738  29.3302548
 107.5380380  39.7855075  39.8813325 107.0547462  40.5855435  40.0877214
 107.6241319  39.7963020  38.9280769 100.8066340  41.6183455  27.8035144
 100.7837028  41.7171142  26.8517027 101.1166976  42.4648606  28.1252310
 103.4653718  43.6759610  31.9181759 104.4196971  43.6443552  31.8511690
 103.2666241  43.2150234  32.7331985 104.0553100  42.2460726  34.4852556
 104.8745989  42.7404805  34.5087394 104.3289907  41.3292694  34.4570124
 101.8203946  49.2179229  28.9351957 101.6858414  48.4579630  28.3689955
 101.4036009  49.9420129  28.4680745 104.9773072  50.1148546  29.1470399
 104.8605456  51.0593979  29.0449089 104.1565519  49.8122108  29.5356198
  99.3088014  36.5798860  35.1844753  99.9546878  36.0697814  35.6731979
  99.1005165  37.3167541  35.7588179 106.0027586  50.7676808  32.3626328
 106.9054833  50.8000418  32.6792823 105.7764956  49.8377259  32.3772663
 107.7581188  49.5207795  29.0236406 106.8076819  49.5209656  28.9100778
 108.0613675  48.7740529  28.5072441 103.6485505  33.7266477  39.2819768
 104.5116967  33.3703282  39.4923092 103.0750916  33.3880372  39.9695172
 107.7203982  55.9260616  27.8001358 108.4075022  55.6122347  27.2122374
 107.5652111  56.8301981  27.5268610 107.2971959  54.0061210  30.0718825
 107.3356058  53.4724801  30.8655944 106.7912251  53.4796415  29.4529803
 109.8635092  53.3954207  27.9576008 109.5437876  52.5419515  27.6650382
 109.3168520  53.6102785  28.7133975 109.7323352  57.0157119  29.9269129
 109.0386823  56.6011071  29.4139084 110.4796343  57.0577655  29.3302548
   4.2602576  47.6922379  96.4655632   4.8980986  47.5729126  95.7618972
   4.1423419  48.6403223  96.5243584   2.5078657  53.1656251  87.7028513
   1.8566637  53.7510331  87.3162527   3.3023020  53.6962446  87.7623550
   3.8143845  45.4173833  93.5408840   4.6006934  44.9993256  93.1899257
   4.0782549  46.3219925  93.7090489   3.9853922  50.8546683  88.2397497
   3.3499755  50.9281309  88.9518402   3.6551328  51.4440282  87.5616576
   9.2152272  45.3549066  94.4441819   9.9477444  44.7848283  94.6779648
   8.4591628  44.9670666  94.8848324   6.1508166  45.7345338  88.4493511
   7.0626022  45.9672724  88.2741208   5.6417813  46.3182382  87.8868589
   4.7577748  50.7171156  95.8407092   4.1286610  50.8816870  95.1383160
   4.3703410  51.1312766  96.6118056   8.6366980  51.6525594  93.1951456
   7.9518018  52.0324495  92.6448489   8.7210829  52.2620921  93.9283404
   7.0063739  52.1757508  97.9669157   7.8281183  51.7737696  97.6851838
   7.0026142  52.0725743  98.9185273  15.0969732  48.5196257  94.3154128
  14.3433441  47.9503655  94.1598133  15.2317274  48.4858921  95.2624763
   3.8011107  46.9048832  87.0280176   3.2857730  47.6753437  87.2668564
   3.5288415  46.2313968  87.6513238   1.3858218  41.7498533  92.0865415
   0.5299814  41.3605383  91.9071053   1.7985170  41.8290494  91.2265200
   8.7745381  49.6581187  88.9633350   7.9974824  49.3192346  88.5188512
   9.4536862  49.6633810  88.2888315   3.5897410  44.7775924  88.8539957
   3.2847545  45.0922073  89.7050101   4.5427852  44.8557344  88.8967290
   2.0343842  50.9366148  90.5032911   1.5065203  50.2018907  90.1906149
   1.5331344  51.7140824  90.2572880   7.0136688  49.1315168  95.6199958
   6.3560362  49.8214429  95.7080086   7.8177087  49.5211600  95.9633944
   5.8242147  47.4859541  93.6703899   6.3374028  48.1189533  94.1725609
   6.4743370  46.8860736  93.3047259   3.0864521  57.4643865  86.4264571
   2.4126220  57.7675562  87.0349528   3.4730343  58.2672945  86.0770028
   3.0858025  46.3600412  91.0464920   3.8329844  46.8721809  90.7372042
   3.3549615  46.0384465  91.9069314   6.5903943  52.4665542  91.7983042
   6.1366270  51.6256452  91.8548233   5.9597909  53.1026941  92.1357822
   5.5336862  43.3957528  93.0283710   4.7959619  42.8834914  93.3593952
   5.7863636  42.9557910  92.2166986   5.0336882  54.3042039  92.7332860
   5.3259856  54.8647096  92.0145226   5.5435503  54.5970600  93.4886019
   1.0560763  50.3967696  85.3679953   0.6180193  49.6803555  84.9085590
   1.7971204  50.6243811  84.8065044   9.1733878  48.6724893  91.4256272
   9.0351777  48.8626489  90.4977461   8.8170097  49.4344276  91.8824323
   9.2003258  50.7401420  96.4367543   9.6339764  50.6476710  97.2850597
   9.9134838  50.7158921  95.7987559   2.9331152  54.3403515  97.9700644
   2.9868175  54.9094451  98.7378360   2.0645934  54.5105400  97.6054681
  10.0618807  50.7825121  98.9700429  10.2554697  51.6870932  99.2159703
   9.9619425  50.3232540  99.8039014   1.2855736  57.6323537  88.6411650
   1.4607492  57.1611581  89.4557272   0.5988524  58.2589304  88.8692910
   2.2412799  51.9096044  94.6874951   1.9062632  51.8696814  95.5832601
   1.7416745  51.2440760  94.2145361   5.1771991  49.2552078  84.9612011
   4.5601161  48.5298906  84.8645063   4.7088479  50.0161438  84.6179085
  11.3160870  47.3398788  95.6148332  11.3050746  48.2223503  95.2442265
  10.4478250  46.9870339  95.4202869   2.8243367  56.4878857  99.9751173
   3.5371339  57.1226322  99.9027074   2.3333395  56.5842723  99.1591174
   4.5460894  50.3930109  91.5468464   3.6117172  50.5131572  91.3773169
   4.7237562  49.4902576  91.2828474   7.9333445  46.2347429  92.0818498
   8.3993897  47.0675420  92.0078801   8.3840945  45.7692410  92.7863757
   6.0009676  52.5791250  89.0804650   6.2769520  52.4647845  89.9898524
   5.1314175  52.1808735  89.0416823   2.6363740  56.8277601  92.7237464
   2.8186135  56.0099257  93.1865216   3.4596726  57.0445293  92.2862354
   2.9705905  55.7545786  89.9852513   3.4993672  55.2438241  89.3722675
   3.2334125  55.4388316  90.8498046   3.6035309  56.7886622  96.3296629
   3.4786449  55.9876362  95.8207574   4.2614400  57.2832815  95.8410599
   5.6670218  54.5895642  97.9576179   4.7200553  54.4700993  97.8854506
   6.0152991  53.7018140  98.0402440   2.6716651  54.3848358  94.1580531
   2.5241613  53.4565065  94.3388101   3.4970144  54.4068449  93.6737607
   6.2750773  55.2076917  95.2445404   7.1997320  55.0019778  95.1069855
   6.1066076  54.9593318  96.1534746   2.6678165  42.2386196  89.1512649
   2.8841780  43.1210833  88.8501477   2.1872232  41.8472409  88.4218291
   6.0646089  55.7262584  90.6007495   6.2382967  55.1609007  89.8481348
   6.5574980  56.5263479  90.4186985  11.9185480  48.4899007  92.2197795
  12.3616626  47.7406332  91.8216918  11.0411990  48.4809143  91.8371527
   7.0521262  55.0429349  87.7004394   7.7472166  55.6636041  87.9191708
   7.3944412  54.1924700  87.9756772   8.9512685  52.4929054  89.2291725
   9.4764009  52.8316327  88.5041045   8.8635037  51.5576069  89.0454859
  11.4618345  49.9604245  94.6120243  12.2965236  50.3994049  94.7757803
  11.5977474  49.4842899  93.7928489   1.1436130  55.1491100  86.6079487
   0.5710097  55.7681287  86.1549959   1.7168924  55.6990462  87.1419409
   4.3633390  55.4328250  87.7388070   5.2964063  55.3673812  87.9420945
   4.2756603  56.2684517  87.2802602   6.9921406  54.7494121  84.6992017
   6.9135038  54.4153984  85.5927775   7.8131073  55.2415889  84.6983490
   9.6899598  47.6155860  97.9068336   9.6575918  46.6771861  98.0928020
  10.3000221  47.6939897  97.1734161   1.5282928  46.4851913  83.9495540
   2.4742033  46.3558121  84.0183958   1.1497173  45.7466575  84.4264968
  15.5076147  48.6771867  97.0474373  16.2379536  48.4157155  97.6082076
  14.8983093  47.9400589  97.0876441  13.5891445  46.8179729  97.6448824
  12.8624608  46.6835694  97.0365315  13.1738731  47.1256558  98.4505542
   1.3287911  38.9538779  90.0394666   0.5188640  38.6085864  90.4149912
   2.0172328  38.6446323  90.6282278   6.6357267  40.1417351  91.1697627
   6.0555936  40.8002155  90.7875680   6.3693199  39.3194696  90.7585045
   5.4182145  42.3017441  90.2253976   4.5308000  42.5867092  90.0074170
   5.8336134  42.1411205  89.3781252   8.7696681  42.3263962  93.9408315
   9.5457071  42.8160415  94.2132932   8.0444815  42.7522017  94.3980184
  11.2069239  43.0391582  94.9982255  11.8013730  42.7987318  94.2875564
  11.2795823  42.3198712  95.6255792   4.5625358  52.0662116  84.3201996
   5.2661208  52.2712119  84.9359651   3.8388007  52.6338878  84.5851079
   5.3923168  47.8171977  90.4404266   5.3358370  48.2740529  89.6011898
   5.9451511  47.0562662  90.2627108   9.2027974  43.6061709  91.2654385
   8.9464909  43.2058345  92.0962593   8.5780842  44.3205503  91.1404524
  13.5140312  46.3457782  93.7725677  12.9539870  46.4150972  94.5457239
  12.9083816  46.1698767  93.0525173   6.4712056  52.5044645  86.3700456
   7.3057660  52.0725844  86.1877930   6.3096399  52.3326659  87.2977350
   6.1257948  49.0076759  87.7356795   6.0706752  48.8421030  86.7945239
   5.5004003  49.7152792  87.8918985  15.0996331  63.0214296  96.4655632
  15.7374741  62.9021044  95.7618972  14.9817174  63.9695140  96.5243584
  11.9086037  62.9741725  96.4017157  11.5704548  62.8582789  95.5137692
  12.7775805  62.5732890  96.3818163   7.7672853  64.8277201  92.3914048
   7.2037718  64.7367138  91.6230336   7.6525248  64.0077105  92.8716540
  12.3905820  64.1276576 102.3603363  12.3794461  63.7329375 101.4883866
  12.5526459  63.3942649 102.9537134   5.3137285  66.3228393  95.2298268
   6.1058577  65.9819217  94.8144568   5.5533935  66.4323368  96.1500422
  13.3472411  68.4948169  87.7028513  12.6960391  69.0802249  87.3162527
  14.1416774  69.0254364  87.7623550   7.2728039  65.5837306  88.1015647
   8.0458915  65.0366293  87.9628523   7.6253437  66.4481555  88.3130109
  10.0369288  64.2890537  97.8983906  10.6332860  64.0646559  97.1840869
  10.0944259  63.5475282  98.5009354   9.6094316  61.7429972  85.7334097
   9.8619837  61.2211493  84.9717560   8.6718875  61.5796117  85.8360781
  14.6537599  60.7465750  93.5408840  15.4400688  60.3285173  93.1899257
  14.9176304  61.6511842  93.7090489  14.8247677  66.1838601  88.2397497
  14.1893510  66.2573227  88.9518402  14.4945083  66.7732199  87.5616576
  20.0546026  60.6840983  94.4441819  20.7871198  60.1140200  94.6779648
  19.2985382  60.2962584  94.8848324   9.3290605  63.6458078  87.9358472
   9.2126863  62.9702981  88.6039556   9.4392865  63.1590452  87.1190625
  11.6722146  63.1068225  91.6405161  11.3080353  62.5798846  92.3518083
  12.5289262  62.7166694  91.4671647  17.5771447  54.3962558  98.9036427
  17.2454771  55.2657969  98.6797642  16.9817060  54.0798842  99.5830458
  11.3127633  58.1358125  86.6366510  11.4802035  59.0038361  87.0036981
  11.1224802  58.2985406  85.7127799  14.0702966  66.5975104  98.3032340
  13.7703689  67.5000142  98.1948147  13.7254026  66.3307287  99.1553493
   7.5215448  63.0488900  94.3369045   6.5965944  62.9165115  94.5446736
   7.7699861  63.8283120  94.8338987  17.4700110  59.1157644  95.9829778
  16.5616987  59.0473052  95.6888539  17.4187706  59.5929589  96.8111603
  11.2916854  60.5915782  87.6213177  11.1716479  61.0372833  88.4598657
  10.5969442  60.9401100  87.0626715   4.8824259  62.6922174  95.1712834
   5.0116640  62.9456653  96.0852245   4.2021710  63.2849882  94.8517489
   9.0523746  73.3619424  91.2703308   8.9747776  74.3127249  91.3491788
   8.4485390  73.0165296  91.9278234  11.5440976  60.5347289 103.9264675
  10.7674310  61.0941209 103.9167539  12.1831539  61.0204072 104.4479545
  19.3361756  57.3174082  97.7607651  18.6936137  57.6106615  97.1147446
  18.8316685  57.2027002  98.5660848  16.9901920  61.0637255  88.4493511
  17.9019776  61.2964642  88.2741208  16.4811567  61.6474300  87.8868589
  15.2742688  65.4861883 102.0854803  15.6826044  65.0444294 101.3409436
  14.5519949  64.9114511 102.3388996  11.6273758  60.4234490  99.4588360
  12.4734953  60.8473903  99.6023009  11.5672395  59.7668114 100.1526923
  15.5971502  66.0463074  95.8407092  14.9680365  66.2108788  95.1383160
  15.2097164  66.4604683  96.6118056  19.4760734  66.9817512  93.1951456
  18.7911772  67.3616413  92.6448489  19.5604584  67.5912838  93.9283404
  14.7773203  58.0838858 101.1169534  14.5334135  58.8380919 100.5803810
  15.0533134  58.4624206 101.9516781  16.7311666  64.6277471  99.7946799
  16.9428561  65.2709231  99.1181181  16.6841414  63.7939787  99.3268730
  14.3337895  57.2395291  96.6983372  13.4722374  57.5376545  96.9900109
  14.3600329  57.4565690  95.7664404  11.1499464  65.7837482  93.1057177
  11.6137810  66.0625185  92.3161800  10.8856262  64.8820926  92.9230268
   8.0423545  65.3308963  96.0436941   8.6124902  65.7596232  95.4054425
   8.6331657  65.0491548  96.7421126  10.0868350  61.9060634  89.9146742
  10.7892394  62.3581678  90.3820669   9.7548979  61.2644453  90.5426636
   3.8293684  60.1644187  95.2163876   3.0392738  60.4201715  94.7403987
   4.3204932  60.9792525  95.3215917  17.8457494  67.5049426  97.9669157
  18.6674938  67.1029613  97.6851838  17.8419897  67.4017660  98.9185273
   5.7808430  60.5288766  92.1747353   4.9839593  60.6407460  92.6930848
   5.5534022  60.8675418  91.3088243  11.6114097  67.0533469 100.1229867
  11.6758530  67.5153877 100.9588039  10.9025021  66.4230834 100.2512177
   2.1131387  60.4174677  97.6478867   2.3639426  61.3021687  97.9136443
   2.6490936  60.2379279  96.8753959  25.9363487  63.8488175  94.3154128
  25.1827195  63.2795573  94.1598133  26.0711028  63.8150839  95.2624763
  11.3262115  68.7201577  89.9908848  11.1907790  69.5653113  90.4193695
  11.8671927  68.9220855  89.2274781   4.7791512  66.2377015  90.5636773
   5.2916033  67.0320265  90.7142337   5.4314225  65.5403305  90.4970374
   6.5886397  69.3542771  92.6459526   6.7653025  70.2760736  92.4580510
   7.3843231  69.0401190  93.0753906  10.7297416  56.2151036 104.2443459
  11.4707129  56.8158189 104.1647922  10.9615338  55.4728674 103.6861502
  15.0511829  69.6227943 102.1490591  15.0330305  70.4436824 101.6570860
  15.9731749  69.4982019 102.3740732  14.6754578  52.2432139  98.5207741
  14.3318848  53.1333780  98.4446852  15.0433541  52.0533796  97.6577326
   2.7440429  64.5665669  91.3396343   3.5815651  64.9762678  91.1230051
   2.9218697  63.6265111  91.3096537  14.6404861  62.2340750  87.0280176
  14.1251485  63.0045355  87.2668564  14.3682170  61.5605886  87.6513238
  12.2251972  57.0790451  92.0865415  11.3693569  56.6897301  91.9071053
  12.6378924  57.1582411  91.2265200  13.7551119  54.6136794  96.4856974
  13.2515914  54.5766929  95.6724780  14.0481726  55.5229537  96.5453631
   9.9994005  54.6975524  95.4923156  10.8647002  54.5018332  95.1329046
  10.0671514  54.4685875  96.4192513  19.6139135  64.9873105  88.9633350
  18.8368578  64.6484264  88.5188512  20.2930616  64.9925728  88.2888315
  14.4291164  60.1067842  88.8539957  14.1241300  60.4213991  89.7050101
  15.3821606  60.1849262  88.8967290  12.8737596  66.2658065  90.5032911
  12.3458958  65.5310825  90.1906149  12.3725099  67.0432742  90.2572880
  17.8530442  64.4607086  95.6199958  17.1954117  65.1506347  95.7080086
  18.6570841  64.8503518  95.9633944   7.6056324  56.9277732  92.8639523
   8.1800076  56.7052913  92.1312716   8.1927306  56.9966426  93.6168124
  16.6635901  62.8151458  93.6703899  17.1767783  63.4481450  94.1725609
  17.3137125  62.2152654  93.3047259   7.9325911  58.9582193  86.8835408
   7.0963223  59.2956879  87.2044683   7.7930681  58.8231172  85.9462545
   9.9078992  53.8018980  91.5914592   9.2543404  53.4867998  90.9671207
   9.8659466  53.1794721  92.3174415  11.0190196  64.0838276  83.5067884
  10.1117258  63.8527529  83.7059033  11.5161228  63.2875895  83.6941866
  13.9258275  72.7935783  86.4264571  13.2519974  73.0967479  87.0349528
  14.3124097  73.5964863  86.0770028  13.1416732  60.2900914  95.9162240
  12.2239293  60.5115861  95.7583928  13.5576876  60.3647224  95.0573947
  13.9251780  61.6892330  91.0464920  14.6723599  62.2013727  90.7372042
  14.1943369  61.3676382  91.9069314  12.1978430  64.1850870  88.0291874
  11.2889649  63.9009903  88.1264344  12.2273514  64.6049949  87.1695181
  17.4297697  67.7957460  91.7983042  16.9760024  66.9548370  91.8548233
  16.7991664  68.4318858  92.1357822  16.3730617  58.7249446  93.0283710
  15.6353374  58.2126832  93.3593952  16.6257390  58.2849828  92.2166986
  15.8730636  69.6333957  92.7332860  16.1653611  70.1939014  92.0145226
  16.3829257  69.9262518  93.4886019  16.4742244  51.5025698  93.6225479
  16.7801121  50.6423061  93.3351394  17.1994849  52.0943318  93.4224473
   2.7666600  61.9056385  92.0107077   2.5691000  61.3125745  91.2858143
   2.2113264  61.6008595  92.7283015  10.7463324  61.7979491  94.1301670
  10.8011934  60.8453327  94.0544146   9.9354526  61.9538930  94.6142968
  11.8954518  65.7259614  85.3679953  11.4573948  65.0095473  84.9085590
  12.6364958  65.9535729  84.8065044   8.6855684  60.4156551  91.8892049
   7.8723549  60.7150721  92.2957241   9.1814678  60.0212240  92.6066531
  10.8364262  70.4114308  93.8226313  10.7940440  70.6375154  92.8934845
  11.7526961  70.1777682  93.9712115  14.2829895  60.8798375 100.7206943
  14.6379283  61.1069848 101.5801408  14.9302027  61.2116752 100.0984198
  20.0127632  64.0016811  91.4256272  19.8745531  64.1918407  90.4977461
  19.6563851  64.7636194  91.8824323   8.1769759  57.9874906  97.5053284
   8.8169138  57.8463665  96.8076247   7.3447289  57.7009420  97.1291886
  20.0397012  66.0693338  96.4367543  20.4733519  65.9768627  97.2850597
  20.7528593  66.0450839  95.7987559   8.9530062  67.2877337  93.6188276
   9.7470661  66.7927657  93.4170851   8.2421755  66.7595200  93.2555982
  13.7724907  69.6695432  97.9700644  13.8261929  70.2386369  98.7378360
  12.9039688  69.8397317  97.6054681   5.2612826  61.4320418  89.6948029
   4.3310414  61.3704874  89.9117991   5.3570298  60.9096371  88.8984670
   5.1798375  57.9575231  92.2826270   5.4405192  58.8720565  92.1735431
   6.0015547  57.4899674  92.4322883   6.6523300  59.3712988  99.4525095
   7.3246354  59.1630351  98.8037744   5.8253087  59.1735074  99.0130327
  20.9012562  66.1117039  98.9700429  21.0948452  67.0162849  99.2159703
  20.8013180  65.6524458  99.8039014  12.5548872  55.9974929 101.4690756
  11.9076787  56.6964879 101.3755232  13.3249888  56.4311073 101.8367004
  15.9627670  66.2623782 104.5441309  15.8113177  66.0334333 103.6271393
  15.9532350  67.2194383 104.5572654  12.7313007  63.8355694  99.5287576
  13.6605067  63.9866854  99.3556543  12.3104037  63.9239715  98.6736222
  11.5301338  67.8606359  97.2986113  11.3912424  67.4925143  98.1712051
  10.7415935  68.3753998  97.1270071  12.1249490  72.9615455  88.6411650
  12.3001246  72.4903498  89.4557272  11.4382278  73.5881221  88.8692910
  13.0806554  67.2387961  94.6874951  12.7456386  67.1988731  95.5832601
  12.5810499  66.5732677  94.2145361   7.0550798  62.6455591 100.2127532
   6.9170595  61.9135830 100.8139071   7.9655721  62.5564492  99.9311720
  16.0165745  64.5843996  84.9612011  15.3994916  63.8590824  84.8645063
  15.5482234  65.3453356  84.6179085   9.6833098  62.3575551  99.7011212
  10.3932717  61.7168743  99.6597830   9.6402406  62.6088446 100.6237393
  17.6719877  69.2942904 102.6217791  17.6132423  68.6102124 101.9548374
  18.0739395  70.0361894 102.1698417   8.3962032  59.3440769 101.5206851
   7.8599389  58.8931507 102.1728448   7.8078741  59.4786677 100.7777316
   7.8064291  58.8029420  84.0833315   6.9293757  58.6818221  83.7195562
   8.2822044  58.0115498  83.8312204  17.6737284  67.2582488 100.8531771
  16.7864063  66.9208410 100.9758170  18.2435835  66.5265519 101.0900536
   4.1301153  58.4796776  98.6059846   4.0459342  57.8722446  97.8710256
   3.3083860  58.9705795  98.6069342  11.2038438  71.9183940  97.8193014
  11.1308609  72.7238912  98.3312318  10.7615831  72.1175906  96.9941035
  10.9928217  71.1555710  91.3295835  10.2095739  71.6977391  91.4234060
  11.6920962  71.6729690  91.7290077  14.3024867  56.9650340  93.9730041
  14.7993567  56.2120302  93.6531111  13.5311849  57.0014657  93.4073250
  22.1554625  62.6690705  95.6148332  22.1444501  63.5515421  95.2442265
  21.2872004  62.3162256  95.4202869  13.6637121  71.8170774  99.9751173
  14.3765093  72.4518239  99.9027074  13.1727150  71.9134640  99.1591174
  15.3854648  65.7222027  91.5468464  14.4510927  65.8423490  91.3773169
  15.5631316  64.8194494  91.2828474  10.8859836  59.1067723  93.7001725
  10.5157624  58.5538763  94.3882631  11.3818929  58.5025856  93.1476725
  18.7727199  61.5639346  92.0818498  19.2387652  62.3967338  92.0078801
  19.2234700  61.0984328  92.7863757  16.8403430  67.9083168  89.0804650
  17.1163274  67.7939762  89.9898524  15.9707929  67.5100652  89.0416823
  16.7443862  53.9319933  96.1209400  15.8306942  54.1624160  96.2891607
  17.1736964  54.0158377  96.9723432  16.5150321  62.1209825  98.6209294
  15.8621771  62.3685733  97.9661746  16.8930700  61.3073963  98.2871771
  13.4757494  72.1569518  92.7237464  13.6579889  71.3391174  93.1865216
  14.2990480  72.3737211  92.2862354  13.8099660  71.0837704  89.9852513
  14.3387426  70.5730158  89.3722675  14.0727880  70.7680234  90.8498046
   7.1655408  72.1352820  92.7450288   6.4965783  72.6198948  92.2614328
   7.0268278  72.3822041  93.6593667   6.2825170  56.5171714  99.9454832
   6.3466496  57.3786545  99.5332229   6.2192290  55.9045715  99.2127190
   2.5342985  60.3971275  89.5246221   2.8296426  59.4881954  89.4713274
   1.6331021  60.3759015  89.2027223  14.4429064  72.1178539  96.3296629
  14.3180203  71.3168279  95.8207574  15.1008155  72.6124733  95.8410599
   6.0637232  58.4727272  95.5073769   5.3423818  59.0863240  95.3681242
   6.8530488  59.0085037  95.4290415  16.5063972  69.9187559  97.9576179
  15.5594308  69.7992911  97.8854506  16.8546745  69.0310057  98.0402440
   8.8663546  55.8081698 101.7814421   9.3897947  56.0543995 102.5440730
   8.6475879  56.6401733 101.3617558   4.2630827  58.0785373  89.6485546
   3.9343533  57.1982752  89.4660652   4.6170197  58.0233042  90.5361935
  13.5110405  69.7140276  94.1580531  13.3635368  68.7856983  94.3388101
  14.3363899  69.7360366  93.6737607   7.3772650  58.3658343  90.0161023
   7.7168722  58.8944264  89.2939632   7.8244770  58.7038749  90.7919590
  17.1144527  70.5368834  95.2445404  18.0391075  70.3311696  95.1069855
  16.9459831  70.2885236  96.1534746  10.0716091  56.7495393  99.4664091
   9.7312911  55.9503207  99.8684771   9.3655097  57.0497104  98.8940925
  10.7232562  53.8344706  97.9191414  11.5458632  53.3605184  97.7970305
  10.9670626  54.6135190  98.4190101   9.3640797  56.8632964  88.2154316
  10.0849159  57.2414217  87.7118033   8.7406101  57.5821841  88.3189294
  13.5071920  57.5678113  89.1512649  13.7235534  58.4502751  88.8501477
  13.0265987  57.1764327  88.4218291   8.2471141  60.5263827  95.7283393
   8.1015722  60.8404130  96.6207675   7.7696345  61.1448727  95.1754292
  10.1067524  57.5166375  95.7764283  10.0929093  56.6207468  95.4396581
  10.8239952  57.5237038  96.4102569  11.9593655  57.9503715  97.8217410
  11.7011433  58.8720785  97.8201741  11.4278695  57.5534149  98.5117874
  16.9039844  71.0554502  90.6007495  17.0776721  70.4900924  89.8481348
  17.3968735  71.8555397  90.4186985   9.5104420  56.3980755  91.0451853
   9.6320331  55.4697401  91.2442740   9.2206462  56.4119441  90.1330168
  12.3795610  54.0835665  94.1818573  12.4017307  54.1474998  93.2270552
  12.7963669  53.2440174  94.3759079  22.7579235  63.8190925  92.2197795
  23.2010381  63.0698250  91.8216918  21.8805745  63.8101061  91.8371527
  17.8915016  70.3721266  87.7004394  18.5865921  70.9927959  87.9191708
  18.2338166  69.5216617  87.9756772  19.7906439  67.8220972  89.2291725
  20.3157763  68.1608245  88.5041045  19.7028792  66.8867987  89.0454859
  11.4747100  73.8892955  93.5886978  11.0352090  73.3969334  94.2819834
  12.2255217  73.3465923  93.3479053   3.9539439  70.0804496  93.5911606
   4.7797459  69.7808268  93.2110249   3.6033491  69.3112118  94.0401394
   8.9220972  69.4330964  95.6609279   8.3000981  68.7701669  95.3611507
   9.5925839  69.4592096  94.9782927  19.4800345  68.4553875 104.5342922
  18.6895889  68.4378014 103.9947422  19.2433700  68.9942169 105.2891959
  19.5998220  65.3046342 101.8475651  19.6496225  65.1396349 102.7891174
  19.4912144  64.4373601 101.4573532   8.4834479  67.9834887  89.1367740
   8.6322599  68.6670352  88.4834413   9.2900922  67.9639978  89.6517196
  16.8901983  61.2877270 103.1634958  17.7911845  61.1483735 102.8718956
  16.9649957  61.4531725 104.1033135  11.2244788  58.6644125 102.0088144
  10.3548097  58.9577691 101.7370733  11.4604268  59.2484570 102.7295408
  21.1016417  67.7243283 102.0917673  20.8101225  68.0873264 102.9281134
  20.4888548  67.0110292 101.9131005  22.3012099  65.2896163  94.6120243
  23.1358991  65.7285967  94.7757803  22.4371228  64.8134816  93.7928489
  19.3503605  62.8475898 100.5597731  19.8257727  63.0403544  99.7516582
  18.4269171  62.9035084 100.3141114   6.2387112  64.0100065  90.1428809
   5.9933154  63.1062395  90.3409019   6.4083026  64.0117216  89.2008287
  13.9283822  54.8823741  99.5253564  14.4465766  55.6184768  99.2000053
  13.5738955  55.1887735 100.3600324   5.5082759  59.7428423  87.6414970
   4.8152004  59.8172778  86.9855006   5.2634511  58.9788766  88.1636487
  14.1796416  51.3024024  95.0454461  14.4598170  50.6347213  95.6714888
  14.9647023  51.4953120  94.5329125  11.9829884  70.4783018  86.6079487
  11.4103852  71.0973205  86.1549959  12.5562678  71.0282380  87.1419409
  18.0505274  59.7241658  98.7926036  19.0022697  59.8239756  98.8138260
  17.8808725  58.9319927  99.3024121  16.0719654  56.8097241  98.9785437
  15.4769586  57.0902254  98.2831926  15.7869350  57.2991142  99.7502178
  15.2027144  70.7620168  87.7388070  16.1357817  70.6965730  87.9420945
  15.1150357  71.5976435  87.2802602  17.8315161  70.0786038  84.6992017
  17.7528792  69.7445902  85.5927775  18.6524828  70.5707806  84.6983490
  20.5293352  62.9447778  97.9068336  20.4969672  62.0063778  98.0928020
  21.1393976  63.0231814  97.1734161  12.3676683  61.8143831  83.9495540
  13.3135788  61.6850039  84.0183958  11.9890928  61.0758493  84.4264968
  20.6787841  59.7358821  97.9526619  20.1626889  58.9517278  97.7656548
  21.5627789  59.4077538  98.1173138  18.3398567  53.4799837  93.9122432
  18.1423389  53.1714925  94.7965764  18.9498273  54.2061476  94.0420362
  26.3469902  64.0063785  97.0474373  27.0773290  63.7449073  97.6082076
  25.7376847  63.2692506  97.0876441  24.4285199  62.1471647  97.6448824
  23.7018363  62.0127612  97.0365315  24.0132486  62.4548476  98.4505542
  10.5519600  59.7393807  83.8850425   9.6451055  59.4426920  83.9613139
  10.8295581  59.4423625  83.0184711   1.4697540  61.0600170  94.3349471
   1.1500325  60.2065479  94.0423845   0.9230969  61.2748749  95.0907439
   5.2477448  63.7762611  98.0518978   5.4663458  64.7079719  98.0707012
   5.6603222  63.4170586  98.8373782  12.1681666  54.2830697  90.0394666
  11.3582394  53.9377782  90.4149912  12.8566083  53.9738241  90.6282278
  14.0972214  53.3608744  91.6618963  14.6503253  53.7804197  92.3208986
  14.3342300  52.4344492  91.7041919   9.3218385  56.5980742  84.0262404
  10.1837549  56.9235641  84.2858222   9.5068729  55.8112238  83.5135470
  17.4751021  55.4709269  91.1697627  16.8949690  56.1294073  90.7875680
  17.2086954  54.6486613  90.7585045  15.9254588  54.8714326  93.3718948
  16.4254366  54.9830861  92.5633266  16.5690195  54.5675379  94.0119756
   3.2522543  64.6121336  94.1808608   3.2293231  64.7109023  93.2290491
   3.5623180  65.4586487  94.5025774  16.2575899  57.6309359  90.2253976
  15.3701754  57.9159010  90.0074170  16.6729888  57.4703122  89.3781252
  19.6090435  57.6555880  93.9408315  20.3850825  58.1452333  94.2132932
  18.8838570  58.0813934  94.3980184  22.0462994  58.3683499  94.9982255
  22.6407485  58.1279235  94.2875564  22.1189578  57.6490630  95.6255792
  15.4019113  67.3954034  84.3201996  16.1054963  67.6004036  84.9359651
  14.6781761  67.9630796  84.5851079  16.2316923  63.1463895  90.4404266
  16.1752124  63.6032446  89.6011898  16.7845265  62.3854580  90.2627108
  20.0421729  58.9353627  91.2654385  19.7858663  58.5350263  92.0962593
  19.4174597  59.6497421  91.1404524  24.3534067  61.6749700  93.7725677
  23.7933625  61.7442889  94.5457239  23.7477570  61.4990685  93.0525173
  17.3105810  67.8336563  86.3700456  18.1451414  67.4017761  86.1877930
  17.1490153  67.6618577  87.2977350  16.9651702  64.3368676  87.7356795
  16.9100506  64.1712948  86.7945239  16.3397758  65.0444709  87.8918985
  10.2747828  53.8376785  87.3142113  10.2626498  54.7818625  87.4710384
  11.1671250  53.6546931  87.0201574  10.2037392  72.5145676  95.4009870
   9.2533023  72.5147537  95.2874242  10.5069878  71.7678410  94.8845905
  14.0899947  50.4319562  91.5688050  13.3232343  49.8778049  91.7144732
  14.5010652  50.5041431  92.4302202  25.9390085  78.3506214  96.4655632
  26.5768495  78.2312961  95.7618972  25.8210928  79.2987058  96.5243584
  22.7479791  78.3033642  96.4017157  22.4098303  78.1874707  95.5137692
  23.6169560  77.9024807  96.3818163  18.6066607  80.1569119  92.3914048
  18.0431472  80.0659056  91.6230336  18.4919002  79.3369023  92.8716540
  23.2299574  79.4568494 102.3603363  23.2188215  79.0621292 101.4883866
  23.3920214  78.7234567 102.9537134  16.1531039  81.6520310  95.2298268
  16.9452331  81.3111135  94.8144568  16.3927689  81.7615285  96.1500422
  24.1866166  83.8240086  87.7028513  23.5354146  84.4094167  87.3162527
  24.9810529  84.3546281  87.7623550  18.1121793  80.9129223  88.1015647
  18.8852669  80.3658211  87.9628523  18.4647192  81.7773473  88.3130109
  20.8763042  79.6182454  97.8983906  21.4726615  79.3938477  97.1840869
  20.9338014  78.8767200  98.5009354  20.4488071  77.0721890  85.7334097
  20.7013592  76.5503411  84.9717560  19.5112630  76.9088035  85.8360781
  25.4931354  76.0757668  93.5408840  26.2794443  75.6577091  93.1899257
  25.7570058  76.9803760  93.7090489  25.6641431  81.5130518  88.2397497
  25.0287264  81.5865145  88.9518402  25.3338837  82.1024117  87.5616576
  30.8939781  76.0132901  94.4441819  31.6264953  75.4432118  94.6779648
  30.1379137  75.6254502  94.8848324  20.1684360  78.9749996  87.9358472
  20.0520618  78.2994899  88.6039556  20.2786619  78.4882369  87.1190625
  22.5115901  78.4360143  91.6405161  22.1474108  77.9090764  92.3518083
  23.3683016  78.0458612  91.4671647  28.4165201  69.7254475  98.9036427
  28.0848526  70.5949886  98.6797642  27.8210815  69.4090759  99.5830458
  22.1521388  73.4650042  86.6366510  22.3195790  74.3330279  87.0036981
  21.9618557  73.6277324  85.7127799  24.9096721  81.9267021  98.3032340
  24.6097444  82.8292060  98.1948147  24.5647780  81.6599204  99.1553493
  18.3609202  78.3780818  94.3369045  17.4359699  78.2457032  94.5446736
  18.6093615  79.1575037  94.8338987  28.3093864  74.4449561  95.9829778
  27.4010742  74.3764970  95.6888539  28.2581460  74.9221506  96.8111603
  22.1310608  75.9207700  87.6213177  22.0110234  76.3664751  88.4598657
  21.4363197  76.2693018  87.0626715  15.7218013  78.0214092  95.1712834
  15.8510394  78.2748571  96.0852245  15.0415465  78.6141800  94.8517489
  19.8917500  88.6911342  91.2703308  19.8141530  89.6419167  91.3491788
  19.2879144  88.3457214  91.9278234  22.3834730  75.8639207 103.9264675
  21.6068064  76.4233127 103.9167539  23.0225293  76.3495990 104.4479545
  30.1755511  72.6466000  97.7607651  29.5329891  72.9398533  97.1147446
  29.6710439  72.5318920  98.5660848  27.8295675  76.3929173  88.4493511
  28.7413531  76.6256560  88.2741208  27.3205322  76.9766217  87.8868589
  26.1136442  80.8153801 102.0854803  26.5219798  80.3736211 101.3409436
  25.3913704  80.2406428 102.3388996  22.4667512  75.7526408  99.4588360
  23.3128707  76.1765821  99.6023009  22.4066150  75.0960032 100.1526923
  26.4365257  81.3754991  95.8407092  25.8074119  81.5400706  95.1383160
  26.0490919  81.7896601  96.6118056  30.3154489  82.3109429  93.1951456
  29.6305527  82.6908331  92.6448489  30.3998338  82.9204756  93.9283404
  25.6166958  73.4130776 101.1169534  25.3727889  74.1672837 100.5803810
  25.8926888  73.7916124 101.9516781  27.5705420  79.9569388  99.7946799
  27.7822316  80.6001148  99.1181181  27.5235169  79.1231705  99.3268730
  25.1731649  72.5687209  96.6983372  24.3116128  72.8668463  96.9900109
  25.1994084  72.7857608  95.7664404  21.9893219  81.1129400  93.1057177
  22.4531564  81.3917103  92.3161800  21.7250017  80.2112844  92.9230268
  18.8817300  80.6600881  96.0436941  19.4518657  81.0888149  95.4054425
  19.4725412  80.3783466  96.7421126  20.9262105  77.2352552  89.9146742
  21.6286148  77.6873596  90.3820669  20.5942733  76.5936371  90.5426636
  14.6687439  75.4936105  95.2163876  13.8786493  75.7493633  94.7403987
  15.1598686  76.3084442  95.3215917  28.6851248  82.8341344  97.9669157
  29.5068692  82.4321531  97.6851838  28.6813651  82.7309578  98.9185273
  16.6202184  75.8580684  92.1747353  15.8233347  75.9699378  92.6930848
  16.3927776  76.1967336  91.3088243  22.4507852  82.3825387 100.1229867
  22.5152284  82.8445794 100.9588039  21.7418776  81.7522752 100.2512177
  12.9525142  75.7466595  97.6478867  13.2033180  76.6313605  97.9136443
  13.4884690  75.5671197  96.8753959  36.7757241  79.1780092  94.3154128
  36.0220950  78.6087490  94.1598133  36.9104783  79.1442757  95.2624763
  22.1655869  84.0493495  89.9908848  22.0301544  84.8945030  90.4193695
  22.7065682  84.2512772  89.2274781  15.6185267  81.5668933  90.5636773
  16.1309787  82.3612183  90.7142337  16.2707980  80.8695223  90.4970374
  17.4280151  84.6834689  92.6459526  17.6046780  85.6052654  92.4580510
  18.2236985  84.3693108  93.0753906  21.5691170  71.5442953 104.2443459
  22.3100883  72.1450107 104.1647922  21.8009093  70.8020591 103.6861502
  25.8905584  84.9519861 102.1490591  25.8724059  85.7728742 101.6570860
  26.8125504  84.8273936 102.3740732  25.5148333  67.5724056  98.5207741
  25.1712602  68.4625698  98.4446852  25.8827296  67.3825714  97.6577326
  13.5834184  79.8957587  91.3396343  14.4209406  80.3054595  91.1230051
  13.7612451  78.9557029  91.3096537  25.4798616  77.5632668  87.0280176
  24.9645239  78.3337272  87.2668564  25.2075924  76.8897804  87.6513238
  23.0645727  72.4082368  92.0865415  22.2087323  72.0189219  91.9071053
  23.4772678  72.4874329  91.2265200  24.5944873  69.9428712  96.4856974
  24.0909669  69.9058847  95.6724780  24.8875480  70.8521454  96.5453631
  20.8387759  70.0267441  95.4923156  21.7040756  69.8310250  95.1329046
  20.9065268  69.7977793  96.4192513  30.4532890  80.3165022  88.9633350
  29.6762333  79.9776182  88.5188512  31.1324371  80.3217645  88.2888315
  25.2684919  75.4359760  88.8539957  24.9635054  75.7505909  89.7050101
  26.2215361  75.5141180  88.8967290  23.7131351  81.5949983  90.5032911
  23.1852712  80.8602743  90.1906149  23.2118853  82.3724659  90.2572880
  28.6924197  79.7899003  95.6199958  28.0347871  80.4798265  95.7080086
  29.4964596  80.1795435  95.9633944  18.4450078  72.2569649  92.8639523
  19.0193830  72.0344831  92.1312716  19.0321061  72.3258344  93.6168124
  27.5029656  78.1443376  93.6703899  28.0161537  78.7773368  94.1725609
  28.1530879  77.5444572  93.3047259  18.7719665  74.2874110  86.8835408
  17.9356978  74.6248797  87.2044683  18.6324435  74.1523090  85.9462545
  20.7472746  69.1310898  91.5914592  20.0937158  68.8159915  90.9671207
  20.7053220  68.5086639  92.3174415  21.8583951  79.4130193  83.5067884
  20.9511013  79.1819447  83.7059033  22.3554983  78.6167812  83.6941866
  24.7652030  88.1227700  86.4264571  24.0913729  88.4259397  87.0349528
  25.1517852  88.9256781  86.0770028  23.9810486  75.6192832  95.9162240
  23.0633048  75.8407779  95.7583928  24.3970630  75.6939142  95.0573947
  24.7645534  77.0184247  91.0464920  25.5117353  77.5305645  90.7372042
  25.0337124  76.6968300  91.9069314  23.0372184  79.5142788  88.0291874
  22.1283404  79.2301821  88.1264344  23.0667268  79.9341867  87.1695181
  28.2691452  83.1249378  91.7983042  27.8153779  82.2840287  91.8548233
  27.6385418  83.7610776  92.1357822  27.2124371  74.0541364  93.0283710
  26.4747128  73.5418750  93.3593952  27.4651145  73.6141745  92.2166986
  26.7124391  84.9625874  92.7332860  27.0047365  85.5230931  92.0145226
  27.2223012  85.2554435  93.4886019  27.3135999  66.8317616  93.6225479
  27.6194875  65.9714979  93.3351394  28.0388603  67.4235236  93.4224473
  13.6060355  77.2348302  92.0107077  13.4084755  76.6417663  91.2858143
  13.0507019  76.9300512  92.7283015  21.5857078  77.1271409  94.1301670
  21.6405688  76.1745245  94.0544146  20.7748280  77.2830848  94.6142968
  22.7348272  81.0551532  85.3679953  22.2967702  80.3387391  84.9085590
  23.4758713  81.2827647  84.8065044  19.5249438  75.7448468  91.8892049
  18.7117304  76.0442639  92.2957241  20.0208432  75.3504157  92.6066531
  21.6758016  85.7406225  93.8226313  21.6334195  85.9667072  92.8934845
  22.5920715  85.5069600  93.9712115  25.1223650  76.2090293 100.7206943
  25.4773038  76.4361766 101.5801408  25.7695781  76.5408670 100.0984198
  30.8521387  79.3308729  91.4256272  30.7139285  79.5210325  90.4977461
  30.4957606  80.0928112  91.8824323  19.0163513  73.3166824  97.5053284
  19.6562892  73.1755583  96.8076247  18.1841044  73.0301337  97.1291886
  30.8790767  81.3985256  96.4367543  31.3127273  81.3060545  97.2850597
  31.5922347  81.3742756  95.7987559  19.7923817  82.6169254  93.6188276
  20.5864415  82.1219575  93.4170851  19.0815509  82.0887118  93.2555982
  24.6118661  84.9987350  97.9700644  24.6655684  85.5678286  98.7378360
  23.7433443  85.1689235  97.6054681  16.1006580  76.7612336  89.6948029
  15.1704169  76.6996792  89.9117991  16.1964052  76.2388289  88.8984670
  16.0192129  73.2867149  92.2826270  16.2798947  74.2012482  92.1735431
  16.8409302  72.8191592  92.4322883  17.4917055  74.7004906  99.4525095
  18.1640108  74.4922268  98.8037744  16.6646841  74.5026992  99.0130327
  31.7406316  81.4408956  98.9700429  31.9342206  82.3454767  99.2159703
  31.6406934  80.9816376  99.8039014  23.3942627  71.3266847 101.4690756
  22.7470542  72.0256797 101.3755232  24.1643642  71.7602991 101.8367004
  26.8021425  81.5915699 104.5441309  26.6506931  81.3626251 103.6271393
  26.7926104  82.5486301 104.5572654  23.5706761  79.1647612  99.5287576
  24.4998821  79.3158772  99.3556543  23.1497791  79.2531633  98.6736222
  22.3695093  83.1898276  97.2986113  22.2306179  82.8217061  98.1712051
  21.5809689  83.7045916  97.1270071  22.9643245  88.2907373  88.6411650
  23.1395001  87.8195416  89.4557272  22.2776033  88.9173139  88.8692910
  23.9200308  82.5679879  94.6874951  23.5850141  82.5280649  95.5832601
  23.4204254  81.9024595  94.2145361  17.8944552  77.9747509 100.2127532
  17.7564350  77.2427748 100.8139071  18.8049476  77.8856409  99.9311720
  26.8559500  79.9135913  84.9612011  26.2388670  79.1882742  84.8645063
  26.3875988  80.6745274  84.6179085  20.5226853  77.6867468  99.7011212
  21.2326471  77.0460661  99.6597830  20.4796161  77.9380363 100.6237393
  28.5113631  84.6234822 102.6217791  28.4526178  83.9394042 101.9548374
  28.9133150  85.3653812 102.1698417  19.2355787  74.6732686 101.5206851
  18.6993144  74.2223425 102.1728448  18.6472495  74.8078595 100.7777316
  18.6458046  74.1321338  84.0833315  17.7687512  74.0110138  83.7195562
  19.1215799  73.3407416  83.8312204  28.5131039  82.5874406 100.8531771
  27.6257817  82.2500327 100.9758170  29.0829590  81.8557437 101.0900536
  14.9694908  73.8088694  98.6059846  14.8853097  73.2014364  97.8710256
  14.1477614  74.2997712  98.6069342  22.0432192  87.2475858  97.8193014
  21.9702364  88.0530830  98.3312318  21.6009585  87.4467824  96.9941035
  21.8321972  86.4847628  91.3295835  21.0489494  87.0269308  91.4234060
  22.5314717  87.0021608  91.7290077  25.1418622  72.2942258  93.9730041
  25.6387321  71.5412220  93.6531111  24.3705603  72.3306574  93.4073250
  32.9948379  77.9982623  95.6148332  32.9838255  78.8807338  95.2442265
  32.1265759  77.6454174  95.4202869  24.5030876  87.1462692  99.9751173
  25.2158848  87.7810157  99.9027074  24.0120904  87.2426558  99.1591174
  26.2248402  81.0513945  91.5468464  25.2904681  81.1715407  91.3773169
  26.4025071  80.1486412  91.2828474  21.7253591  74.4359641  93.7001725
  21.3551378  73.8830681  94.3882631  22.2212683  73.8317774  93.1476725
  29.6120954  76.8931264  92.0818498  30.0781406  77.7259256  92.0078801
  30.0628454  76.4276246  92.7863757  27.6797185  83.2375085  89.0804650
  27.9557029  83.1231680  89.9898524  26.8101684  82.8392570  89.0416823
  27.5837617  69.2611851  96.1209400  26.6700696  69.4916078  96.2891607
  28.0130718  69.3450295  96.9723432  27.3544075  77.4501743  98.6209294
  26.7015525  77.6977650  97.9661746  27.7324455  76.6365881  98.2871771
  24.3151249  87.4861436  92.7237464  24.4973643  86.6683092  93.1865216
  25.1384235  87.7029128  92.2862354  24.6493414  86.4129621  89.9852513
  25.1781181  85.9022076  89.3722675  24.9121634  86.0972152  90.8498046
  18.0049162  87.4644738  92.7450288  17.3359538  87.9490866  92.2614328
  17.8662032  87.7113958  93.6593667  17.1218924  71.8463631  99.9454832
  17.1860251  72.7078462  99.5332229  17.0586044  71.2337633  99.2127190
  13.3736739  75.7263193  89.5246221  13.6690181  74.8173871  89.4713274
  12.4724775  75.7050932  89.2027223  25.2822818  87.4470457  96.3296629
  25.1573958  86.6460197  95.8207574  25.9401909  87.9416650  95.8410599
  16.9030986  73.8019190  95.5073769  16.1817572  74.4155157  95.3681242
  17.6924242  74.3376954  95.4290415  27.3457727  85.2479477  97.9576179
  26.3988062  85.1284828  97.8854506  27.6940500  84.3601975  98.0402440
  19.7057300  71.1373616 101.7814421  20.2291702  71.3835913 102.5440730
  19.4869633  71.9693651 101.3617558  15.1024581  73.4077291  89.6485546
  14.7737287  72.5274670  89.4660652  15.4563952  73.3524959  90.5361935
  24.3504160  85.0432193  94.1580531  24.2029122  84.1148901  94.3388101
  25.1757653  85.0652284  93.6737607  18.2166404  73.6950260  90.0161023
  18.5562477  74.2236182  89.2939632  18.6638525  74.0330667  90.7919590
  27.9538282  85.8660752  95.2445404  28.8784829  85.6603613  95.1069855
  27.7853585  85.6177153  96.1534746  20.9109845  72.0787311  99.4664091
  20.5706665  71.2795124  99.8684771  20.2048851  72.3789022  98.8940925
  21.5626317  69.1636624  97.9191414  22.3852386  68.6897102  97.7970305
  21.8064380  69.9427107  98.4190101  20.2034551  72.1924882  88.2154316
  20.9242914  72.5706135  87.7118033  19.5799855  72.9113759  88.3189294
  24.3465674  72.8970031  89.1512649  24.5629289  73.7794669  88.8501477
  23.8659741  72.5056244  88.4218291  19.0864896  75.8555744  95.7283393
  18.9409476  76.1696047  96.6207675  18.6090099  76.4740645  95.1754292
  20.9461279  72.8458292  95.7764283  20.9322847  71.9499385  95.4396581
  21.6633707  72.8528956  96.4102569  22.7987409  73.2795632  97.8217410
  22.5405187  74.2012703  97.8201741  22.2672450  72.8826067  98.5117874
  27.7433598  86.3846419  90.6007495  27.9170476  85.8192842  89.8481348
  28.2362489  87.1847314  90.4186985  20.3498174  71.7272672  91.0451853
  20.4714086  70.7989319  91.2442740  20.0600217  71.7411358  90.1330168
  23.2189365  69.4127583  94.1818573  23.2411062  69.4766916  93.2270552
  23.6357424  68.5732092  94.3759079  33.5972989  79.1482842  92.2197795
  34.0404135  78.3990168  91.8216918  32.7199499  79.1392979  91.8371527
  28.7308770  85.7013184  87.7004394  29.4259675  86.3219877  87.9191708
  29.0731921  84.8508535  87.9756772  30.6300194  83.1512889  89.2291725
  31.1551518  83.4900162  88.5041045  30.5422546  82.2159905  89.0454859
  22.3140854  89.2184873  93.5886978  21.8745845  88.7261251  94.2819834
  23.0648971  88.6757840  93.3479053  14.7933193  85.4096414  93.5911606
  15.6191213  85.1100185  93.2110249  14.4427245  84.6404036  94.0401394
  19.7614727  84.7622882  95.6609279  19.1394736  84.0993587  95.3611507
  20.4319593  84.7884014  94.9782927  19.8339254  73.2404670 105.2541785
  19.8827409  74.1166793 104.8719555  20.3761768  72.6982063 104.6813429
  30.3194100  83.7845793 104.5342922  29.5289643  83.7669932 103.9947422
  30.0827454  84.3234087 105.2891959  30.4391975  80.6338259 101.8475651
  30.4889980  80.4688267 102.7891174  30.3305898  79.7665518 101.4573532
  19.3228233  83.3126805  89.1367740  19.4716354  83.9962270  88.4834413
  20.1294677  83.2931895  89.6517196  27.7295737  76.6169187 103.1634958
  28.6305600  76.4775652 102.8718956  27.8043712  76.7823642 104.1033135
  22.0638542  73.9936042 102.0088144  21.1941852  74.2869608 101.7370733
  22.2998023  74.5776487 102.7295408  31.9410172  83.0535201 102.0917673
  31.6494980  83.4165182 102.9281134  31.3282303  82.3402209 101.9131005
  33.1405854  80.6188081  94.6120243  33.9752745  81.0577885  94.7757803
  33.2764983  80.1426734  93.7928489  30.1897360  78.1767816 100.5597731
  30.6651481  78.3695462  99.7516582  29.2662925  78.2327001 100.3141114
  17.0780866  79.3391983  90.1428809  16.8326908  78.4354313  90.3409019
  17.2476781  79.3409133  89.2008287  24.7677576  70.2115659  99.5253564
  25.2859520  70.9476686  99.2000053  24.4132709  70.5179652 100.3600324
  16.3476514  75.0720340  87.6414970  15.6545759  75.1464695  86.9855006
  16.1028266  74.3080684  88.1636487  25.0190170  66.6315942  95.0454461
  25.2991924  65.9639131  95.6714888  25.8040777  66.8245037  94.5329125
  22.8223639  85.8074936  86.6079487  22.2497606  86.4265123  86.1549959
  23.3956433  86.3574297  87.1419409  28.8899029  75.0533576  98.7926036
  29.8416452  75.1531673  98.8138260  28.7202479  74.2611844  99.3024121
  26.9113408  72.1389159  98.9785437  26.3163340  72.4194172  98.2831926
  26.6263105  72.6283060  99.7502178  26.0420899  86.0912086  87.7388070
  26.9751572  86.0257647  87.9420945  25.9544112  86.9268353  87.2802602
  28.6708915  85.4077956  84.6992017  28.5922547  85.0737820  85.5927775
  29.4918582  85.8999724  84.6983490  31.3687107  78.2739695  97.9068336
  31.3363427  77.3355696  98.0928020  31.9787730  78.3523732  97.1734161
  23.2070437  77.1435748  83.9495540  24.1529542  77.0141956  84.0183958
  22.8284682  76.4050410  84.4264968  31.5181595  75.0650739  97.9526619
  31.0020644  74.2809195  97.7656548  32.4021544  74.7369455  98.1173138
  29.1792322  68.8091754  93.9122432  28.9817143  68.5006843  94.7965764
  29.7892028  69.5353393  94.0420362  37.1863656  79.3355702  97.0474373
  37.9167045  79.0740990  97.6082076  36.5770602  78.5984424  97.0876441
  35.2678954  77.4763565  97.6448824  34.5412117  77.3419530  97.0365315
  34.8526240  77.7840393  98.4505542  21.3913355  75.0685725  83.8850425
  20.4844810  74.7718837  83.9613139  21.6689336  74.7715543  83.0184711
  12.3091295  76.3892088  94.3349471  11.9894079  75.5357396  94.0423845
  11.7624723  76.6040666  95.0907439  16.0871203  79.1054529  98.0518978
  16.3057212  80.0371637  98.0707012  16.4996976  78.7462504  98.8373782
  23.0075420  69.6122614  90.0394666  22.1976149  69.2669699  90.4149912
  23.6959837  69.3030158  90.6282278  24.9365969  68.6900661  91.6618963
  25.4897007  69.1096115  92.3208986  25.1736055  67.7636409  91.7041919
  20.1612139  71.9272660  84.0262404  21.0231303  72.2527558  84.2858222
  20.3462483  71.1404156  83.5135470  28.3144776  70.8001186  91.1697627
  27.7343445  71.4585990  90.7875680  28.0480708  69.9778531  90.7585045
  26.7648342  70.2006244  93.3718948  27.2648120  70.3122779  92.5633266
  27.4083950  69.8967297  94.0119756  14.0916297  79.9413253  94.1808608
  14.0686986  80.0400941  93.2290491  14.4016934  80.7878404  94.5025774
  27.0969654  72.9601277  90.2253976  26.2095509  73.2450927  90.0074170
  27.5123643  72.7995040  89.3781252  30.4484190  72.9847798  93.9408315
  31.2244580  73.4744250  94.2132932  29.7232324  73.4105852  94.3980184
  32.8856748  73.6975417  94.9982255  33.4801239  73.4571153  94.2875564
  32.9583332  72.9782548  95.6255792  26.2412867  82.7245951  84.3201996
  26.9448717  82.9295954  84.9359651  25.5175516  83.2922713  84.5851079
  27.0710677  78.4755813  90.4404266  27.0145879  78.9324364  89.6011898
  27.6239020  77.7146497  90.2627108  30.8815483  74.2645545  91.2654385
  30.6252418  73.8642180  92.0962593  30.2568351  74.9789339  91.1404524
  35.1927821  77.0041618  93.7725677  34.6327379  77.0734807  94.5457239
  34.5871325  76.8282602  93.0525173  28.1499565  83.1628481  86.3700456
  28.9845169  82.7309679  86.1877930  27.9883907  82.9910494  87.2977350
  27.8045457  79.6660594  87.7356795  27.7494261  79.5004865  86.7945239
  27.1791512  80.3736627  87.8918985  21.1141582  69.1668703  87.3142113
  21.1020252  70.1110543  87.4710384  22.0065004  68.9838848  87.0201574
  21.0431146  87.8437593  95.4009870  20.0926777  87.8439455  95.2874242
  21.3463632  87.0970328  94.8845905  24.9293702  65.7611480  91.5688050
  24.1626097  65.2069966  91.7144732  25.3404407  65.8333348  92.4302202
  36.7783840  93.6798132  96.4655632  37.4162250  93.5604879  95.7618972
  36.6604683  94.6278976  96.5243584  33.5873546  93.6325560  96.4017157
  33.2492057  93.5166625  95.5137692  34.4563314  93.2316725  96.3818163
  29.4460362  95.4861036  92.3914048  28.8825227  95.3950973  91.6230336
  29.3312757  94.6660941  92.8716540  34.0693329  94.7860412 102.3603363
  34.0581970  94.3913210 101.4883866  34.2313968  94.0526484 102.9537134
  26.9924794  96.9812228  95.2298268  27.7846086  96.6403053  94.8144568
  27.2321444  97.0907203  96.1500422  35.0259920  99.1532004  87.7028513
  34.3747900  99.7386084  87.3162527  35.8204283  99.6838199  87.7623550
  28.9515548  96.2421141  88.1015647  29.7246424  95.6950128  87.9628523
  29.3040946  97.1065390  88.3130109  31.7156797  94.9474372  97.8983906
  32.3120369  94.7230394  97.1840869  31.7731768  94.2059117  98.5009354
  31.2881825  92.4013807  85.7334097  31.5407346  91.8795329  84.9717560
  30.3506384  92.2379953  85.8360781  36.3325108  91.4049586  93.5408840
  37.1188197  90.9869009  93.1899257  36.5963812  92.3095678  93.7090489
  36.5035186  96.8422436  88.2397497  35.8681018  96.9157062  88.9518402
  36.1732592  97.4316035  87.5616576  41.7333535  91.3424819  94.4441819
  42.4658707  90.7724036  94.6779648  40.9772891  90.9546419  94.8848324
  31.0078114  94.3041913  87.9358472  30.8914372  93.6286817  88.6039556
  31.1180374  93.8174287  87.1190625  33.3509655  93.7652060  91.6405161
  32.9867862  93.2382681  92.3518083  34.2076771  93.3750529  91.4671647
  39.2558956  85.0546393  98.9036427  38.9242280  85.9241804  98.6797642
  38.6604569  84.7382677  99.5830458  32.9915142  88.7941960  86.6366510
  33.1589544  89.6622196  87.0036981  32.8012311  88.9569242  85.7127799
  35.7490475  97.2558939  98.3032340  35.4491198  98.1583978  98.1948147
  35.4041535  96.9891122  99.1553493  29.2002957  93.7072736  94.3369045
  28.2753453  93.5748950  94.5446736  29.4487370  94.4866955  94.8338987
  39.1487619  89.7741479  95.9829778  38.2404496  89.7056888  95.6888539
  39.0975215  90.2513424  96.8111603  32.9704363  91.2499618  87.6213177
  32.8503988  91.6956668  88.4598657  32.2756951  91.5984935  87.0626715
  26.5611768  93.3506009  95.1712834  26.6904149  93.6040488  96.0852245
  25.8809219  93.9433717  94.8517489  30.7311255 104.0203259  91.2703308
  30.6535285 104.9711084  91.3491788  30.1272899 103.6749132  91.9278234
  33.2228485  91.1931125 103.9264675  32.4461819  91.7525045 103.9167539
  33.8619048  91.6787908 104.4479545  41.0149265  87.9757918  97.7607651
  40.3723646  88.2690451  97.1147446  40.5104194  87.8610838  98.5660848
  38.6689429  91.7221091  88.4493511  39.5807285  91.9548477  88.2741208
  38.1599076  92.3058135  87.8868589  36.9530197  96.1445719 102.0854803
  37.3613553  95.7028129 101.3409436  36.2307458  95.5698346 102.3388996
  33.3061267  91.0818325  99.4588360  34.1522462  91.5057739  99.6023009
  33.2459904  90.4251950 100.1526923  37.2759011  96.7046909  95.8407092
  36.6467874  96.8692623  95.1383160  36.8884673  97.1188519  96.6118056
  41.1548243  97.6401347  93.1951456  40.4699281  98.0200248  92.6448489
  41.2392093  98.2496674  93.9283404  36.4560712  88.7422694 101.1169534
  36.2121644  89.4964754 100.5803810  36.7320643  89.1208041 101.9516781
  38.4099175  95.2861306  99.7946799  38.6216070  95.9293066  99.1181181
  38.3628923  94.4523623  99.3268730  36.0125404  87.8979127  96.6983372
  35.1509883  88.1960380  96.9900109  36.0387838  88.1149526  95.7664404
  32.8286973  96.4421317  93.1057177  33.2925319  96.7209020  92.3161800
  32.5643771  95.5404762  92.9230268  29.7211054  95.9892799  96.0436941
  30.2912411  96.4180067  95.4054425  30.3119166  95.7075383  96.7421126
  31.7655859  92.5644470  89.9146742  32.4679903  93.0165513  90.3820669
  31.4336488  91.9228288  90.5426636  25.5081193  90.8228022  95.2163876
  24.7180247  91.0785551  94.7403987  25.9992441  91.6376360  95.3215917
  39.5245003  98.1633261  97.9669157  40.3462447  97.7613449  97.6851838
  39.5207406  98.0601496  98.9185273  27.4595939  91.1872602  92.1747353
  26.6627102  91.2991296  92.6930848  27.2321531  91.5259254  91.3088243
  33.2901606  97.7117305 100.1229867  33.3546039  98.1737712 100.9588039
  32.5812530  97.0814670 100.2512177  23.7918896  91.0758513  97.6478867
  24.0426935  91.9605523  97.9136443  24.3278445  90.8963114  96.8753959
  47.6150996  94.5072010  94.3154128  46.8614704  93.9379408  94.1598133
  47.7498537  94.4734674  95.2624763  33.0049624  99.3785412  89.9908848
  32.8695299 100.2236948  90.4193695  33.5459436  99.5804690  89.2274781
  26.4579021  96.8960850  90.5636773  26.9703542  97.6904101  90.7142337
  27.1101734  96.1987141  90.4970374  28.2673906 100.0126607  92.6459526
  28.4440534 100.9344571  92.4580510  29.0630740  99.6985026  93.0753906
  32.4084925  86.8734871 104.2443459  33.1494638  87.4742024 104.1647922
  32.6402847  86.1312509 103.6861502  36.7299338 100.2811779 102.1490591
  36.7117814 101.1020660 101.6570860  37.6519258 100.1565854 102.3740732
  36.3542087  82.9015974  98.5207741  36.0106357  83.7917616  98.4446852
  36.7221050  82.7117632  97.6577326  24.4227938  95.2249505  91.3396343
  25.2603160  95.6346513  91.1230051  24.6006206  94.2848947  91.3096537
  36.3192370  92.8924585  87.0280176  35.8038994  93.6629190  87.2668564
  36.0469679  92.2189721  87.6513238  33.9039481  87.7374286  92.0865415
  33.0481078  87.3481136  91.9071053  34.3166433  87.8166247  91.2265200
  35.4338628  85.2720629  96.4856974  34.9303423  85.2350764  95.6724780
  35.7269235  86.1813372  96.5453631  31.6781514  85.3559359  95.4923156
  32.5434510  85.1602168  95.1329046  31.7459023  85.1269711  96.4192513
  41.2926644  95.6456940  88.9633350  40.5156087  95.3068099  88.5188512
  41.9718125  95.6509563  88.2888315  36.1078673  90.7651677  88.8539957
  35.8028809  91.0797826  89.7050101  37.0609115  90.8433097  88.8967290
  34.5525105  96.9241901  90.5032911  34.0246467  96.1894660  90.1906149
  34.0512608  97.7016577  90.2572880  39.5317951  95.1190921  95.6199958
  38.8741626  95.8090183  95.7080086  40.3358350  95.5087353  95.9633944
  29.2843833  87.5861567  92.8639523  29.8587585  87.3636748  92.1312716
  29.8714815  87.6550261  93.6168124  38.3423410  93.4735294  93.6703899
  38.8555292  94.1065286  94.1725609  38.9924634  92.8736489  93.3047259
  29.6113420  89.6166028  86.8835408  28.7750732  89.9540714  87.2044683
  29.4718190  89.4815008  85.9462545  31.5866501  84.4602816  91.5914592
  30.9330913  84.1451833  90.9671207  31.5446975  83.8378556  92.3174415
  32.6977705  94.7422111  83.5067884  31.7904767  94.5111364  83.7059033
  33.1948737  93.9459730  83.6941866  35.6045784 103.4519618  86.4264571
  34.9307483 103.7551315  87.0349528  35.9911606 104.2548698  86.0770028
  34.8204241  90.9484749  95.9162240  33.9026802  91.1699696  95.7583928
  35.2364385  91.0231060  95.0573947  35.6039289  92.3476165  91.0464920
  36.3511108  92.8597562  90.7372042  35.8730878  92.0260218  91.9069314
  33.8765939  94.8434706  88.0291874  32.9677158  94.5593739  88.1264344
  33.9061023  95.2633784  87.1695181  39.1085206  98.4541295  91.7983042
  38.6547533  97.6132205  91.8548233  38.4779173  99.0902694  92.1357822
  38.0518126  89.3833281  93.0283710  37.3140883  88.8710668  93.3593952
  38.3044899  88.9433663  92.2166986  37.5518145 100.2917792  92.7332860
  37.8441120 100.8522849  92.0145226  38.0616766 100.5846353  93.4886019
  38.1529753  82.1609533  93.6225479  38.4588630  81.3006897  93.3351394
  38.8782358  82.7527153  93.4224473  24.4454109  92.5640220  92.0107077
  24.2478509  91.9709581  91.2858143  23.8900773  92.2592430  92.7283015
  32.4250833  92.4563326  94.1301670  32.4799443  91.5037163  94.0544146
  31.6142035  92.6122765  94.6142968  33.5742027  96.3843449  85.3679953
  33.1361457  95.6679308  84.9085590  34.3152467  96.6119564  84.8065044
  30.3643193  91.0740386  91.8892049  29.5511058  91.3734557  92.2957241
  30.8602187  90.6796075  92.6066531  32.5151771 101.0698143  93.8226313
  32.4727949 101.2958989  92.8934845  33.4314470 100.8361518  93.9712115
  35.9617404  91.5382211 100.7206943  36.3166792  91.7653684 101.5801408
  36.6089536  91.8700587 100.0984198  41.6915141  94.6600646  91.4256272
  41.5533040  94.8502242  90.4977461  41.3351360  95.4220029  91.8824323
  29.8557268  88.6458742  97.5053284  30.4956647  88.5047501  96.8076247
  29.0234798  88.3593255  97.1291886  41.7184521  96.7277173  96.4367543
  42.1521028  96.6352463  97.2850597  42.4316102  96.7034674  95.7987559
  30.6317571  97.9461172  93.6188276  31.4258170  97.4511492  93.4170851
  29.9209264  97.4179035  93.2555982  35.4512416 100.3279268  97.9700644
  35.5049438 100.8970204  98.7378360  34.5827197 100.4981153  97.6054681
  26.9400335  92.0904254  89.6948029  26.0097923  92.0288709  89.9117991
  27.0357807  91.5680207  88.8984670  26.8585884  88.6159067  92.2826270
  27.1192701  89.5304400  92.1735431  27.6803056  88.1483509  92.4322883
  28.3310809  90.0296824  99.4525095  29.0033863  89.8214186  98.8037744
  27.5040596  89.8318910  99.0130327  42.5800071  96.7700874  98.9700429
  42.7735961  97.6746685  99.2159703  42.4800689  96.3108293  99.8039014
  34.2336381  86.6558765 101.4690756  33.5864296  87.3548714 101.3755232
  35.0037397  87.0894909 101.8367004  37.6415179  96.9207617 104.5441309
  37.4900686  96.6918169 103.6271393  37.6319859  97.8778218 104.5572654
  34.4100516  94.4939530  99.5287576  35.3392576  94.6450689  99.3556543
  33.9891546  94.5823550  98.6736222  33.2088847  98.5190194  97.2986113
  33.0699933  98.1508978  98.1712051  32.4203444  99.0337833  97.1270071
  33.8036999 103.6199291  88.6411650  33.9788755 103.1487334  89.4557272
  33.1169787 104.2465057  88.8692910  34.7594063  97.8971797  94.6874951
  34.4243895  97.8572567  95.5832601  34.2598008  97.2316513  94.2145361
  28.7338307  93.3039427 100.2127532  28.5958104  92.5719666 100.8139071
  29.6443230  93.2148327  99.9311720  37.6953254  95.2427831  84.9612011
  37.0782425  94.5174659  84.8645063  37.2269743  96.0037191  84.6179085
  31.3620607  93.0159386  99.7011212  32.0720226  92.3752578  99.6597830
  31.3189915  93.2672281 100.6237393  39.3507386  99.9526739 102.6217791
  39.2919932  99.2685960 101.9548374  39.7526904 100.6945729 102.1698417
  30.0749541  90.0024604 101.5206851  29.5386898  89.5515342 102.1728448
  29.4866250  90.1370513 100.7777316  29.4851800  89.4613255  84.0833315
  28.6081266  89.3402056  83.7195562  29.9609553  88.6699334  83.8312204
  39.3524793  97.9166323 100.8531771  38.4651572  97.5792245 100.9758170
  39.9223344  97.1849355 101.0900536  25.8088662  89.1380612  98.6059846
  25.7246851  88.5306281  97.8710256  24.9871369  89.6289630  98.6069342
  32.8825947 102.5767776  97.8193014  32.8096118 103.3822747  98.3312318
  32.4403340 102.7759742  96.9941035  32.6715726 101.8139546  91.3295835
  31.8883248 102.3561226  91.4234060  33.3708471 102.3313525  91.7290077
  35.9812376  87.6234175  93.9730041  36.4781076  86.8704138  93.6531111
  35.2099358  87.6598492  93.4073250  43.8342134  93.3274541  95.6148332
  43.8232010  94.2099256  95.2442265  42.9659513  92.9746092  95.4202869
  35.3424630 102.4754610  99.9751173  36.0552602 103.1102075  99.9027074
  34.8514659 102.5718476  99.1591174  37.0642157  96.3805862  91.5468464
  36.1298436  96.5007325  91.3773169  37.2418825  95.4778329  91.2828474
  32.5647345  89.7651558  93.7001725  32.1945133  89.2122599  94.3882631
  33.0606437  89.1609692  93.1476725  40.4514708  92.2223182  92.0818498
  40.9175161  93.0551173  92.0078801  40.9022209  91.7568163  92.7863757
  38.5190939  98.5667003  89.0804650  38.7950783  98.4523598  89.9898524
  37.6495438  98.1684488  89.0416823  38.4231371  84.5903769  96.1209400
  37.5094451  84.8207996  96.2891607  38.8524473  84.6742213  96.9723432
  38.1937830  92.7793661  98.6209294  37.5409280  93.0269568  97.9661746
  38.5718209  91.9657799  98.2871771  35.1545003 102.8153354  92.7237464
  35.3367398 101.9975010  93.1865216  35.9777989 103.0321046  92.2862354
  35.4887169 101.7421539  89.9852513  36.0174935 101.2313994  89.3722675
  35.7515389 101.4264069  90.8498046  28.8442917 102.7936656  92.7450288
  28.1753292 103.2782783  92.2614328  28.7055787 103.0405876  93.6593667
  27.9612679  87.1755549  99.9454832  28.0254005  88.0370380  99.5332229
  27.8979799  86.5629551  99.2127190  24.2130494  91.0555111  89.5246221
  24.5083935  90.1465789  89.4713274  23.3118530  91.0342850  89.2027223
  36.1216573 102.7762375  96.3296629  35.9967712 101.9752115  95.8207574
  36.7795664 103.2708568  95.8410599  27.7424741  89.1311107  95.5073769
  27.0211327  89.7447075  95.3681242  28.5317997  89.6668872  95.4290415
  38.1851481 100.5771395  97.9576179  37.2381817 100.4576746  97.8854506
  38.5334254  99.6893893  98.0402440  30.5451055  86.4665534 101.7814421
  31.0685456  86.7127830 102.5440730  30.3263388  87.2985569 101.3617558
  25.9418336  88.7369208  89.6485546  25.6131042  87.8566587  89.4660652
  26.2957706  88.6816877  90.5361935  35.1897914 100.3724111  94.1580531
  35.0422877  99.4440818  94.3388101  36.0151408 100.3944202  93.6737607
  29.0560159  89.0242178  90.0161023  29.3956231  89.5528099  89.2939632
  29.5032279  89.3622584  90.7919590  38.7932036 101.1952670  95.2445404
  39.7178584 100.9895531  95.1069855  38.6247340 100.9469071  96.1534746
  31.7503600  87.4079229  99.4664091  31.4100420  86.6087042  99.8684771
  31.0442606  87.7080940  98.8940925  32.4020071  84.4928541  97.9191414
  33.2246141  84.0189019  97.7970305  32.6458135  85.2719025  98.4190101
  31.0428306  87.5216800  88.2154316  31.7636668  87.8998052  87.7118033
  30.4193610  88.2405676  88.3189294  35.1859429  88.2261949  89.1512649
  35.4023043  89.1086587  88.8501477  34.7053496  87.8348162  88.4218291
  29.9258650  91.1847662  95.7283393  29.7803231  91.4987965  96.6207675
  29.4483854  91.8032562  95.1754292  31.7855033  88.1750210  95.7764283
  31.7716602  87.2791303  95.4396581  32.5027461  88.1820874  96.4102569
  33.6381164  88.6087550  97.8217410  33.3798942  89.5304621  97.8201741
  33.1066204  88.2117985  98.5117874  38.5827352 101.7138337  90.6007495
  38.7564230 101.1484760  89.8481348  39.0756244 102.5139232  90.4186985
  31.1891929  87.0564590  91.0451853  31.3107840  86.1281236  91.2442740
  30.8993971  87.0703276  90.1330168  34.0583119  84.7419501  94.1818573
  34.0804816  84.8058834  93.2270552  34.4751178  83.9024009  94.3759079
  44.4366744  94.4774760  92.2197795  44.8797890  93.7282085  91.8216918
  43.5593254  94.4684896  91.8371527  39.5702525 101.0305102  87.7004394
  40.2653430 101.6511794  87.9191708  39.9125675 100.1800453  87.9756772
  41.4693948  98.4804807  89.2291725  41.9945272  98.8192080  88.5041045
  41.3816301  97.5451822  89.0454859  33.1534609 104.5476790  93.5886978
  32.7139599 104.0553169  94.2819834  33.9042726 104.0049758  93.3479053
  25.6326948 100.7388331  93.5911606  26.4584968 100.4392103  93.2110249
  25.2821000  99.9695954  94.0401394  30.6008481 100.0914799  95.6609279
  29.9788490  99.4285505  95.3611507  31.2713348 100.1175931  94.9782927
  30.6733008  88.5696587 105.2541785  30.7221164  89.4458710 104.8719555
  31.2155523  88.0273981 104.6813429  41.2785729  95.9630177 101.8475651
  41.3283734  95.7980185 102.7891174  41.1699653  95.0957436 101.4573532
  30.1621988  98.6418723  89.1367740  30.3110108  99.3254187  88.4834413
  30.9688431  98.6223813  89.6517196  38.5689492  91.9461105 103.1634958
  39.4699354  91.8067570 102.8718956  38.6437466  92.1115560 104.1033135
  32.9032297  89.3227960 102.0088144  32.0335606  89.6161526 101.7370733
  33.1391777  89.9068405 102.7295408  42.7803926  98.3827119 102.0917673
  42.4888734  98.7457099 102.9281134  42.1676057  97.6694127 101.9131005
  43.9799608  95.9479998  94.6120243  44.8146500  96.3869802  94.7757803
  44.1158737  95.4718652  93.7928489  41.0291114  93.5059733 100.5597731
  41.5045236  93.6987380  99.7516582  40.1056680  93.5618919 100.3141114
  27.9174621  94.6683900  90.1428809  27.6720663  93.7646230  90.3409019
  28.0870535  94.6701051  89.2008287  35.6071331  85.5407577  99.5253564
  36.1253275  86.2768604  99.2000053  35.2526464  85.8471570 100.3600324
  27.1870268  90.4012258  87.6414970  26.4939513  90.4756613  86.9855006
  26.9422020  89.6372602  88.1636487  35.8583925  81.9607859  95.0454461
  36.1385679  81.2931048  95.6714888  36.6434532  82.1536955  94.5329125
  33.6617393 101.1366853  86.6079487  33.0891361 101.7557040  86.1549959
  34.2350187 101.6866215  87.1419409  39.7292783  90.3825493  98.7926036
  40.6810206  90.4823591  98.8138260  39.5596234  89.5903762  99.3024121
  37.7507163  87.4681077  98.9785437  37.1557095  87.7486089  98.2831926
  37.4656859  87.9574977  99.7502178  36.8814653 101.4204003  87.7388070
  37.8145326 101.3549565  87.9420945  36.7937866 102.2560270  87.2802602
  39.5102670 100.7369874  84.6992017  39.4316301 100.4029737  85.5927775
  40.3312337 101.2291642  84.6983490  42.2080861  93.6031613  97.9068336
  42.1757181  92.6647614  98.0928020  42.8181485  93.6815650  97.1734161
  34.0464192  92.4727666  83.9495540  34.9923297  92.3433874  84.0183958
  33.6678437  91.7342328  84.4264968  42.3575350  90.3942656  97.9526619
  41.8414398  89.6101113  97.7656548  43.2415298  90.0661373  98.1173138
  40.0186076  84.1383672  93.9122432  39.8210898  83.8298760  94.7965764
  40.6285782  84.8645311  94.0420362  48.0257411  94.6647620  97.0474373
  48.7560799  94.4032908  97.6082076  47.4164356  93.9276342  97.0876441
  46.1072708  92.8055482  97.6448824  45.3805872  92.6711447  97.0365315
  45.6919995  93.1132311  98.4505542  32.2307109  90.3977642  83.8850425
  31.3238564  90.1010755  83.9613139  32.5083090  90.1007460  83.0184711
  23.1485049  91.7184006  94.3349471  22.8287834  90.8649314  94.0423845
  22.6018478  91.9332584  95.0907439  26.9264957  94.4346447  98.0518978
  27.1450967  95.3663555  98.0707012  27.3390731  94.0754421  98.8373782
  33.8469175  84.9414532  90.0394666  33.0369903  84.5961617  90.4149912
  34.5353592  84.6322076  90.6282278  35.7759723  84.0192579  91.6618963
  36.3290762  84.4388032  92.3208986  36.0129809  83.0928327  91.7041919
  31.0005894  87.2564578  84.0262404  31.8625058  87.5819476  84.2858222
  31.1856238  86.4696074  83.5135470  39.1538530  86.1293104  91.1697627
  38.5737199  86.7877908  90.7875680  38.8874463  85.3070449  90.7585045
  37.6042097  85.5298162  93.3718948  38.1041875  85.6414696  92.5633266
  38.2477704  85.2259215  94.0119756  24.9310052  95.2705171  94.1808608
  24.9080740  95.3692858  93.2290491  25.2410688  96.1170322  94.5025774
  37.9363408  88.2893194  90.2253976  37.0489263  88.5742845  90.0074170
  38.3517397  88.1286958  89.3781252  41.2877944  88.3139715  93.9408315
  42.0638334  88.8036168  94.2132932  40.5626079  88.7397770  94.3980184
  43.7250503  89.0267335  94.9982255  44.3194994  88.7863071  94.2875564
  43.7977087  88.3074465  95.6255792  37.0806622  98.0537869  84.3201996
  37.7842472  98.2587872  84.9359651  36.3569270  98.6214631  84.5851079
  37.9104432  93.8047730  90.4404266  37.8539633  94.2616282  89.6011898
  38.4632774  93.0438415  90.2627108  41.7209238  89.5937462  91.2654385
  41.4646172  89.1934098  92.0962593  41.0962106  90.3081256  91.1404524
  46.0321576  92.3333536  93.7725677  45.4721134  92.4026725  94.5457239
  45.4265079  92.1574520  93.0525173  38.9893319  98.4920398  86.3700456
  39.8238923  98.0601597  86.1877930  38.8277662  98.3202412  87.2977350
  38.6439211  94.9952512  87.7356795  38.5888015  94.8296783  86.7945239
  38.0185267  95.7028545  87.8918985  31.9535337  84.4960621  87.3142113
  31.9414007  85.4402461  87.4710384  32.8458759  84.3130766  87.0201574
  31.8824901 103.1729511  95.4009870  30.9320532 103.1731373  95.2874242
  32.1857387 102.4262246  94.8845905  35.7687456  81.0903397  91.5688050
  35.0019852  80.5361884  91.7144732  36.1798161  81.1625266  92.4302202
  42.1275580 107.7305725  85.7334097  42.3801101 107.2087246  84.9717560
  41.1900139 107.5671870  85.8360781  47.1718863 106.7341503  93.5408840
  47.9581952 106.3160926  93.1899257  47.4357567 107.6387595  93.7090489
  44.1903410 109.0943978  91.6405161  43.8261617 108.5674599  92.3518083
  45.0470525 108.7042447  91.4671647  43.8308896 104.1233878  86.6366510
  43.9983299 104.9914114  87.0036981  43.6406066 104.2861159  85.7127799
  43.8098117 106.5791535  87.6213177  43.6897743 107.0248586  88.4598657
  43.1150706 106.9276853  87.0626715  49.5083184 107.0513008  88.4493511
  50.4201040 107.2840395  88.2741208  48.9992831 107.6350053  87.8868589
  46.8519158 103.2271044  96.6983372  45.9903637 103.5252298  96.9900109
  46.8781593 103.4441443  95.7664404  42.6049614 107.8936387  89.9146742
  43.3073657 108.3457431  90.3820669  42.2730242 107.2520206  90.5426636
  36.3474948 106.1519940  95.2163876  35.5574002 106.4077468  94.7403987
  36.8386195 106.9668278  95.3215917  38.2989693 106.5164519  92.1747353
  37.5020856 106.6283213  92.6930848  38.0715285 106.8551171  91.3088243
  47.1935842  98.2307892  98.5207741  46.8500111  99.1209533  98.4446852
  47.5614805  98.0409549  97.6577326  47.1586125 108.2216503  87.0280176
  46.6432748 108.9921108  87.2668564  46.8863433 107.5481639  87.6513238
  44.7433236 103.0666204  92.0865415  43.8874832 102.6773054  91.9071053
  45.1560187 103.1458164  91.2265200  46.2732382 100.6012547  96.4856974
  45.7697178 100.5642682  95.6724780  46.5662989 101.5105290  96.5453631
  42.5175268 100.6851277  95.4923156  43.3828265 100.4894085  95.1329046
  42.5852777 100.4561628  96.4192513  52.1320399 110.9748858  88.9633350
  51.3549842 110.6360017  88.5188512  52.8111880 110.9801481  88.2888315
  46.9472428 106.0943595  88.8539957  46.6422563 106.4089744  89.7050101
  47.9002870 106.1725015  88.8967290  40.1237587 102.9153485  92.8639523
  40.6981339 102.6928666  92.1312716  40.7108570 102.9842179  93.6168124
  40.4507174 104.9457946  86.8835408  39.6144487 105.2832632  87.2044683
  40.3111944 104.8106925  85.9462545  42.4260255  99.7894733  91.5914592
  41.7724667  99.4743751  90.9671207  42.3840729  99.1670474  92.3174415
  45.6597995 106.2776667  95.9162240  44.7420557 106.4991614  95.7583928
  46.0758139 106.3522978  95.0573947  46.4433043 107.6768083  91.0464920
  47.1904862 108.1889480  90.7372042  46.7124633 107.3552135  91.9069314
  48.8911880 104.7125199  93.0283710  48.1534637 104.2002585  93.3593952
  49.1438654 104.2725581  92.2166986  48.9923508  97.4901451  93.6225479
  49.2982384  96.6298814  93.3351394  49.7176112  98.0819071  93.4224473
  43.2644587 107.7855244  94.1301670  43.3193197 106.8329080  94.0544146
  42.4535789 107.9414683  94.6142968  41.2036947 106.4032304  91.8892049
  40.3904813 106.7026474  92.2957241  41.6995941 106.0087993  92.6066531
  52.5308896 109.9892564  91.4256272  52.3926794 110.1794160  90.4977461
  52.1745115 110.7511947  91.8824323  40.6951022 103.9750659  97.5053284
  41.3350401 103.8339418  96.8076247  39.8628553 103.6885173  97.1291886
  37.6979638 103.9450984  92.2826270  37.9586456 104.8596318  92.1735431
  38.5196811 103.4775427  92.4322883  39.1704564 105.3588741  99.4525095
  39.8427617 105.1506104  98.8037744  38.3434350 105.1610827  99.0130327
  40.3245555 104.7905173  84.0833315  39.4475021 104.6693974  83.7195562
  40.8003308 103.9991251  83.8312204  36.6482417 104.4672529  98.6059846
  36.5640606 103.8598199  97.8710256  35.8265123 104.9581548  98.6069342
  46.8206131 102.9526093  93.9730041  47.3174830 102.1996055  93.6531111
  46.0493112 102.9890410  93.4073250  43.4041100 105.0943476  93.7001725
  43.0338887 104.5414516  94.3882631  43.9000192 104.4901609  93.1476725
  51.2908463 107.5515099  92.0818498  51.7568915 108.3843091  92.0078801
  51.7415963 107.0860081  92.7863757  49.2625126  99.9195686  96.1209400
  48.3488205 100.1499913  96.2891607  49.6918227 100.0034130  96.9723432
  38.8006433 102.5047467  99.9454832  38.8647760 103.3662298  99.5332229
  38.7373553 101.8921468  99.2127190  38.5818495 104.4603025  95.5073769
  37.8605081 105.0738993  95.3681242  39.3711751 104.9960790  95.4290415
  36.7812090 104.0661126  89.6485546  36.4524796 103.1858505  89.4660652
  37.1351461 104.0108795  90.5361935  39.8953913 104.3534096  90.0161023
  40.2349986 104.8820017  89.2939632  40.3426034 104.6914502  90.7919590
  42.5897354 102.7371146  99.4664091  42.2494174 101.9378960  99.8684771
  41.8836360 103.0372857  98.8940925  43.2413826  99.8220459  97.9191414
  44.0639895  99.3480937  97.7970305  43.4851889 100.6010943  98.4190101
  41.8822060 102.8508717  88.2154316  42.6030423 103.2289970  87.7118033
  41.2587364 103.5697594  88.3189294  46.0253183 103.5553866  89.1512649
  46.2416798 104.4378504  88.8501477  45.5447250 103.1640080  88.4218291
  40.7652405 106.5139580  95.7283393  40.6196985 106.8279883  96.6207675
  40.2877608 107.1324480  95.1754292  42.6248788 103.5042128  95.7764283
  42.6110356 102.6083221  95.4396581  43.3421216 103.5112791  96.4102569
  44.4774918 103.9379468  97.8217410  44.2192696 104.8596538  97.8201741
  43.9459959 103.5409902  98.5117874  42.0285683 102.3856508  91.0451853
  42.1501595 101.4573154  91.2442740  41.7387726 102.3995194  90.1330168
  44.8976874 100.0711418  94.1818573  44.9198571 100.1350751  93.2270552
  45.3144933  99.2315927  94.3759079  38.0264023 105.7304176  87.6414970
  37.3333268 105.8048531  86.9855006  37.7815775 104.9664519  88.1636487
  46.6977679  97.2899777  95.0454461  46.9779433  96.6222966  95.6714888
  47.4828286  97.4828873  94.5329125  44.8857946 107.8019584  83.9495540
  45.8317051 107.6725792  84.0183958  44.5072191 107.0634246  84.4264968
  50.8579831  99.4675590  93.9122432  50.6604652  99.1590678  94.7965764
  51.4679537 100.1937229  94.0420362  43.0700864 105.7269560  83.8850425
  42.1632319 105.4302673  83.9613139  43.3476845 105.4299378  83.0184711
  44.6862929 100.2706450  90.0394666  43.8763658  99.9253535  90.4149912
  45.3747346  99.9613994  90.6282278  46.6153478  99.3484497  91.6618963
  47.1684516  99.7679950  92.3208986  46.8523564  98.4220245  91.7041919
  41.8399648 102.5856495  84.0262404  42.7018812 102.9111394  84.2858222
  42.0249992 101.7987991  83.5135470  49.9932285 101.4585022  91.1697627
  49.4130954 102.1169826  90.7875680  49.7268217 100.6362366  90.7585045
  48.4435851 100.8590079  93.3718948  48.9435629 100.9706614  92.5633266
  49.0871459 100.5551132  94.0119756  48.7757163 103.6185112  90.2253976
  47.8883018 103.9034763  90.0074170  49.1911152 103.4578876  89.3781252
  52.1271699 103.6431633  93.9408315  52.9032089 104.1328086  94.2132932
  51.4019833 104.0689687  94.3980184  48.7498186 109.1339648  90.4404266
  48.6933388 109.5908200  89.6011898  49.3026529 108.3730333  90.2627108
  52.5602992 104.9229380  91.2654385  52.3039927 104.5226016  92.0962593
  51.9355860 105.6373174  91.1404524  49.4832966 110.3244429  87.7356795
  49.4281770 110.1588701  86.7945239  48.8579021 111.0320462  87.8918985
  42.7929091  99.8252538  87.3142113  42.7807761 100.7694378  87.4710384
  43.6852513  99.6422684  87.0201574  46.6081211  96.4195315  91.5688050
  45.8413606  95.8653802  91.7144732  47.0191916  96.4917184  92.4302202
   4.2602577  24.6984501  83.1900939   4.8980987  24.5791249  82.4864279
   4.1423420  25.6465345  83.2488891   2.5078658  30.1718374  74.4273820
   1.8566638  30.7572454  74.0407833   3.3023021  30.7024568  74.4868857
   3.8143846  22.4235955  80.2654147   4.6006935  22.0055378  79.9144564
   4.0782550  23.3282047  80.4335795   3.9853923  27.8608806  74.9642804
   3.3499756  27.9343432  75.6763708   3.6551330  28.4502404  74.2861883
   9.2152273  22.3611188  81.1687126   9.9477445  21.7910405  81.4024955
   8.4591629  21.9732789  81.6093631   6.1508167  22.7407460  75.1738817
   7.0626023  22.9734847  74.9986515   5.6417814  23.3244504  74.6113896
   4.7577749  27.7233279  82.5652399   4.1286612  27.8878993  81.8628467
   4.3703411  28.1374888  83.3363363   8.6366981  28.6587717  79.9196763
   7.9518019  29.0386618  79.3693796   8.7210830  29.2683043  80.6528710
   7.0063741  29.1819631  84.6914463   7.8281184  28.7799818  84.4097145
   7.0026143  29.0787865  85.6430579  15.0969734  25.5258379  81.0399435
  14.3433442  24.9565778  80.8843439  15.2317275  25.4921044  81.9870070
   3.8011108  23.9110955  73.7525483   3.2857731  24.6815559  73.9913870
   3.5288416  23.2376091  74.3758544   1.3858219  18.7560656  78.8110721
   0.5299815  18.3667506  78.6316360   1.7985171  18.8352616  77.9510507
   8.7745382  26.6643309  75.6878656   7.9974825  26.3254469  75.2433818
   9.4536863  26.6695933  75.0133621   3.5897411  21.7838047  75.5785264
   3.2847547  22.0984196  76.4295407   4.5427853  21.8619467  75.6212597
   2.0343843  27.9428270  77.2278218   1.5065205  27.2081030  76.9151455
   1.5331346  28.7202947  76.9818186   7.0136689  26.1377291  82.3445264
   6.3560363  26.8276552  82.4325393   7.8177088  26.5273723  82.6879251
   5.8242148  24.4921663  80.3949206   6.3374030  25.1251655  80.8970916
   6.4743372  23.8922859  80.0292566   3.0864522  34.4705988  73.1509877
   2.4126221  34.7737684  73.7594835   3.4730344  35.2735068  72.8015334
   3.0858026  23.3662535  77.7710227   3.8329845  23.8783932  77.4617349
   3.3549616  23.0446587  78.6314620   6.5903944  29.4727665  78.5228349
   6.1366271  28.6318575  78.5793539   5.9597911  30.1089063  78.8603129
   5.5336864  20.4019651  79.7529016   4.7959620  19.8897037  80.0839259
   5.7863637  19.9620032  78.9412293   5.0336883  31.3104162  79.4578167
   5.3259858  31.8709219  78.7390532   5.5435504  31.6032723  80.2131326
   1.0560764  27.4029819  72.0925260   0.6180194  26.6865678  71.6330897
   1.7971205  27.6305934  71.5310351   9.1733879  25.6787016  78.1501578
   9.0351778  25.8688612  77.2222767   8.8170098  26.4406399  78.6069629
   9.2003259  27.7463543  83.1612850   9.6339765  27.6538832  84.0095904
   9.9134839  27.7221044  82.5232866   2.9331154  31.3465637  84.6945950
   2.9868176  31.9156573  85.4623666   2.0645935  31.5167522  84.3299988
  10.0618808  27.7887244  85.6945735  10.2554698  28.6933054  85.9405010
   9.9619427  27.3294663  86.5284320   1.2855737  34.6385660  75.3656956
   1.4607493  34.1673703  76.1802579   0.5988525  35.2651426  75.5938217
   2.2412800  28.9158166  81.4120258   1.9062633  28.8758936  82.3077908
   1.7416746  28.2502882  80.9390668   5.1771992  26.2614201  71.6857317
   4.5601163  25.5361029  71.5890370   4.7088480  27.0223561  71.3424392
  11.3160871  24.3460910  82.3393639  11.3050748  25.2285626  81.9687572
  10.4478251  23.9932461  82.1448176   2.8243368  33.4940979  86.6996479
   3.5371340  34.1288444  86.6272381   2.3333396  33.5904845  85.8836481
   4.5460895  27.3992232  78.2713771   3.6117173  27.5193694  78.1018475
   4.7237563  26.4964699  78.0073781   7.9333446  23.2409551  78.8063805
   8.3993898  24.0737543  78.7324108   8.3840947  22.7754533  79.5109064
   6.0009677  29.5853373  75.8049957   6.2769521  29.4709967  76.7143831
   5.1314176  29.1870857  75.7662130   2.6363741  33.8339723  79.4482771
   2.8186136  33.0161379  79.9110523   3.4596727  34.0507416  79.0107661
   2.9705907  32.7607909  76.7097819   3.4993673  32.2500363  76.0967981
   3.2334126  32.4450439  77.5743352   3.6035311  33.7948744  83.0541936
   3.4786450  32.9938484  82.5452881   4.2614402  34.2894938  82.5655906
   5.6670219  31.5957764  84.6821486   4.7200554  31.4763116  84.6099812
   6.0152992  30.7080262  84.7647747   2.6716652  31.3910481  80.8825838
   2.5241615  30.4627188  81.0633408   3.4970146  31.4130571  80.3982913
   6.2750774  32.2139039  81.9690711   7.1997322  32.0081901  81.8315162
   6.1066077  31.9655440  82.8780052   2.6678167  19.2448318  75.8757955
   2.8841781  20.1272956  75.5746783   2.1872234  18.8534532  75.1463597
   6.0646090  32.7324707  77.3252802   6.2382968  32.1671129  76.5726655
   6.5574982  33.5325602  77.1432292  11.9185481  25.4961130  78.9443102
  12.3616627  24.7468455  78.5462225  11.0411992  25.4871266  78.5616834
   7.0521263  32.0491471  74.4249700   7.7472167  32.6698164  74.6437015
   7.3944413  31.1986822  74.7002078   8.9512686  29.4991177  75.9537031
   9.4764010  29.8378449  75.2286351   8.8635038  28.5638192  75.7700166
  11.4618346  26.9666368  81.3365549  12.2965238  27.4056172  81.5003110
  11.5977475  26.4905021  80.5173795   1.1436131  32.1553223  73.3324794
   0.5710098  32.7743410  72.8795266   1.7168925  32.7052585  73.8664716
   4.3633391  32.4390373  74.4633376   5.2964064  32.3735935  74.6666252
   4.2756604  33.2746640  74.0047909   6.9921408  31.7556243  71.4237324
   6.9135039  31.4216107  72.3173082   7.8131074  32.2478011  71.4228796
   9.6899599  24.6217983  84.6313642   9.6575919  23.6833983  84.8173326
  10.3000223  24.7002019  83.8979467   1.5282930  23.4914036  70.6740846
   2.4742034  23.3620244  70.7429265   1.1497175  22.7528697  71.1510275
  15.5076149  25.6833989  83.7719679  16.2379537  25.4219278  84.3327383
  14.8983094  24.9462711  83.8121747  13.5891446  23.8241852  84.3694130
  12.8624609  23.6897817  83.7610622  13.1738733  24.1318681  85.1750848
   6.6357268  17.1479474  77.8942934   6.0555937  17.8064278  77.5120986
   6.3693201  16.3256818  77.4830351   5.4182146  19.3079564  76.9499282
   4.5308001  19.5929215  76.7319477   5.8336135  19.1473327  76.1026559
   8.7696682  19.3326085  80.6653621   9.5457072  19.8222537  80.9378238
   8.0444816  19.7584139  81.1225491  11.2069241  20.0453704  81.7227562
  11.8013732  19.8049440  81.0120870  11.2795824  19.3260835  82.3501098
   4.5625359  29.0724239  71.0447302   5.2661210  29.2774241  71.6604958
   3.8388008  29.6401001  71.3096386   5.3923170  24.8234100  77.1649572
   5.3358371  25.2802651  76.3257205   5.9451512  24.0624785  76.9872415
   9.2027976  20.6123832  77.9899692   8.9464910  20.2120468  78.8207900
   8.5780844  21.3267626  77.8649831  13.5140313  23.3519905  80.4970983
  12.9539871  23.4213094  81.2702545  12.9083817  23.1760890  79.7770479
   6.4712057  29.5106768  73.0945762   7.3057661  29.0787966  72.9123237
   6.3096400  29.3388782  74.0222657   6.1257949  26.0138881  74.4602102
   6.0706753  25.8483153  73.5190546   5.5004004  26.7214914  74.6164291
  15.0996332  40.0276419  83.1900939  15.7374742  39.9083166  82.4864279
  14.9817175  40.9757263  83.2488891  11.9086038  39.9803847  83.1262464
  11.5704550  39.8644912  82.2382999  12.7775806  39.5795012  83.1063470
   7.7672854  41.8339324  79.1159355   7.2037719  41.7429260  78.3475642
   7.6525249  41.0139228  79.5961847  12.3905821  41.1338699  89.0848669
  12.3794462  40.7391497  88.2129173  12.5526461  40.4004771  89.6782441
   5.3137286  43.3290515  81.9543575   6.1058578  42.9881340  81.5389874
   5.5533936  43.4385490  82.8745728  13.3472413  45.5010291  74.4273820
  12.6960392  46.0864372  74.0407833  14.1416775  46.0316486  74.4868857
   7.2728040  42.5899428  74.8260954   8.0458916  42.0428415  74.6873830
   7.6253439  43.4543678  75.0375415   9.1113082  43.9175811  88.0327853
   8.8202948  44.8221442  87.9174519   9.7470067  43.9592338  88.7471923
  10.0369289  41.2952659  84.6229213  10.6332861  41.0708682  83.9086176
  10.0944261  40.5537405  85.2254661   9.6094318  38.7492095  72.4579404
   9.8619838  38.2273616  71.6962867   8.6718877  38.5858240  72.5606087
  14.6537600  37.7527873  80.2654147  15.4400690  37.3347296  79.9144564
  14.9176305  38.6573965  80.4335795  14.8247678  43.1900723  74.9642804
  14.1893511  43.2635350  75.6763708  14.4945084  43.7794322  74.2861883
  20.0546028  37.6903106  81.1687126  20.7871200  37.1202323  81.4024955
  19.2985383  37.3024707  81.6093631   9.3290606  40.6520200  74.6603779
   9.2126864  39.9765104  75.3284863   9.4392866  40.1652574  73.8435932
  11.6722147  40.1130348  78.3650468  11.3080355  39.5860969  79.0763389
  12.5289263  39.7228817  78.1916953  17.5771448  31.4024680  85.6281734
  17.2454773  32.2720091  85.4042949  16.9817061  31.0860964  86.3075765
  11.3127634  35.1420247  73.3611816  11.4802037  36.0100484  73.7282288
  11.1224803  35.3047529  72.4373106  14.0702967  43.6037226  85.0277647
  13.7703691  44.5062265  84.9193454  13.7254027  43.3369409  85.8798800
   7.5215449  40.0551023  81.0614351   6.5965945  39.9227237  81.2692043
   7.7699862  40.8345242  81.5584294  17.4700111  36.1219766  82.7075084
  16.5616989  36.0535175  82.4133845  17.4187707  36.5991711  83.5356910
  11.2916855  37.5977905  74.3458483  11.1716480  38.0434956  75.1843964
  10.5969444  37.9463222  73.7872021   4.8824260  39.6984297  81.8958140
   5.0116641  39.9518775  82.8097552   4.2021711  40.2912005  81.5762795
   9.0523747  50.3681547  77.9948615   8.9747777  51.3189372  78.0737095
   8.4485391  50.0227419  78.6523541  11.5440977  37.5409412  90.6509981
  10.7674311  38.1003332  90.6412846  12.1831540  38.0266195  91.1724852
  19.3361758  34.3236205  84.4852958  18.6936138  34.6168738  83.8392753
  18.8316686  34.2089125  85.2906155  16.9901921  38.0699378  75.1738817
  17.9019777  38.3026765  74.9986515  16.4811568  38.6536422  74.6113896
   9.7987349  40.3494865  90.2127948  10.5402034  40.8879909  89.9362772
   9.0924335  40.9761154  90.3699500  15.2742689  42.4924006  88.8100110
  15.6826045  42.0506416  88.0654742  14.5519950  41.9176633  89.0634303
  11.6273759  37.4296613  86.1833667  12.4734954  37.8536026  86.3268316
  11.5672397  36.7730237  86.8772230  15.5971504  43.0525196  82.5652399
  14.9680366  43.2170911  81.8628467  15.2097166  43.4666806  83.3363363
  19.4760736  43.9879634  79.9196763  18.7911774  44.3678536  79.3693796
  19.5604585  44.5974961  80.6528710  14.7773204  35.0900981  87.8414841
  14.5334136  35.8443041  87.3049116  15.0533135  35.4686329  88.6762088
  16.7311667  41.6339593  86.5192106  16.9428562  42.2771353  85.8426487
  16.6841415  40.8001910  86.0514036  14.3337896  34.2457414  83.4228678
  13.4722375  34.5438667  83.7145416  14.3600331  34.4627813  82.4909711
  11.1499465  42.7899604  79.8302484  11.6137811  43.0687307  79.0407106
  10.8856264  41.8883049  79.6475575   8.0423547  42.3371086  82.7682247
   8.6124904  42.7658354  82.1299732   8.6331658  42.0553671  83.4666433
  10.0868352  38.9122757  76.6392049  10.7892395  39.3643801  77.1065975
   9.7548980  38.2706576  77.2671942   8.5348713  37.5034513  91.0143258
   7.9047374  38.1850794  91.2478655   8.4284801  37.3917595  90.0696397
   3.8293685  37.1706310  81.9409183   3.0392739  37.4263838  81.4649293
   4.3204933  37.9854647  82.0461223  17.8457495  44.5111549  84.6914463
  18.6674939  44.1091736  84.4097145  17.8419898  44.4079783  85.6430579
   5.7808431  37.5350889  78.8992659   4.9839594  37.6469583  79.4176155
   5.5534023  37.8737541  78.0333550  11.6114099  44.0595592  86.8475174
  11.6758531  44.5215999  87.6833346  10.9025022  43.4292957  86.9757484
   2.1131388  37.4236800  84.3724173   2.3639427  38.3083810  84.6381749
   2.6490937  37.2441401  83.5999265  25.9363488  40.8550297  81.0399435
  25.1827196  40.2857695  80.8843439  26.0711029  40.8212962  81.9870070
  11.3262116  45.7263699  76.7154154  11.1907791  46.5715235  77.1439002
  11.8671929  45.9282977  75.9520088   4.7791514  43.2439138  77.2882079
   5.2916034  44.0382388  77.4387644   5.4314226  42.5465428  77.2215681
   6.5886398  46.3604894  79.3704833   6.7653027  47.2822858  79.1825816
   7.3843232  46.0463313  79.7999212  10.7297417  33.2213158  90.9688766
  11.4707130  33.8220312  90.8893229  10.9615340  32.4790796  90.4106809
   5.8738755  38.4069526  89.2466996   5.7592270  37.5054783  89.5474095
   5.0183273  38.6533222  88.8951812  12.9530593  46.3487266  90.8454496
  12.5094447  45.5623645  90.5275401  13.6147806  46.5366416  90.1798387
   7.7117714  47.8783068  85.3715175   8.2625139  47.7500131  84.5992169
   6.8729190  48.1777957  85.0210068  15.0511831  46.6290066  88.8735898
  15.0330306  47.4498947  88.3816167  15.9731751  46.5044141  89.0986039
  11.5084885  44.1434195  89.7159406  12.0413222  43.3822484  89.4858714
  10.9798966  43.8507847  90.4583560  14.6754580  29.2494261  85.2453048
  14.3318849  30.1395903  85.1692158  15.0433542  29.0595919  84.3822633
   2.7440430  41.5727792  78.0641650   3.5815652  41.9824800  77.8475358
   2.9218698  40.6327234  78.0341844  14.6404862  39.2402872  73.7525483
  14.1251486  40.0107477  73.9913870  14.3682171  38.5668009  74.3758544
  12.2251973  34.0852573  78.8110721  11.3693570  33.6959424  78.6316360
  12.6378925  34.1644534  77.9510507  13.7551120  31.6198917  83.2102281
  13.2515916  31.5829052  82.3970086  14.0481727  32.5291659  83.2698938
   9.9994006  31.7037646  82.2168463  10.8647003  31.5080455  81.8574352
  10.0671515  31.4747998  83.1437819  19.6139137  41.9935227  75.6878656
  18.8368579  41.6546387  75.2433818  20.2930618  41.9987850  75.0133621
  14.4291166  37.1129965  75.5785264  14.1241301  37.4276114  76.4295407
  15.3821608  37.1911384  75.6212597  12.8737597  43.2720188  77.2278218
  12.3458959  42.5372947  76.9151455  12.3725100  44.0494864  76.9818186
  17.8530443  41.4669208  82.3445264  17.1954118  42.1568470  82.4325393
  18.6570843  41.8565640  82.6879251   7.6056325  33.9339854  79.5884830
   8.1800077  33.7115036  78.8558022   8.1927308  34.0028549  80.3413431
  16.6635902  39.8213581  80.3949206  17.1767784  40.4543573  80.8970916
  17.3137126  39.2214777  80.0292566   7.9325912  35.9644315  73.6080715
   7.0963224  36.3019002  73.9289990   7.7930682  35.8293295  72.6707852
   9.9078993  30.8081103  78.3159899   9.2543405  30.4930120  77.6916514
   9.8659467  30.1856844  79.0419722  11.0190198  41.0900398  70.2313191
  10.1117259  40.8589652  70.4304340  11.5161230  40.2938017  70.4187173
  13.9258277  49.7997905  73.1509877  13.2519975  50.1029602  73.7594835
  14.3124098  50.6026986  72.8015334  13.1416733  37.2963037  82.6407547
  12.2239295  37.5177984  82.4829235  13.5576877  37.3709347  81.7819254
  13.9251781  38.6954452  77.7710227  14.6723600  39.2075849  77.4617349
  14.1943370  38.3738505  78.6314620  12.1978431  41.1912993  74.7537181
  11.2889650  40.9072026  74.8509651  12.2273515  41.6112072  73.8940488
  17.4297699  44.8019583  78.5228349  16.9760026  43.9610492  78.5793539
  16.7991665  45.4380981  78.8603129  16.3730618  35.7311569  79.7529016
  15.6353375  35.2188955  80.0839259  16.6257392  35.2911950  78.9412293
  15.8730638  46.6396079  79.4578167  16.1653612  47.2001136  78.7390532
  16.3829258  46.9324640  80.2131326  16.4742245  28.5087821  80.3470785
  16.7801122  27.6485184  80.0596700  17.1994850  29.1005441  80.1469779
   2.7666601  38.9118507  78.7352383   2.5691001  38.3187868  78.0103450
   2.2113265  38.6070717  79.4528322  10.7463325  38.8041614  80.8546976
  10.8011935  37.8515450  80.7789453   9.9354527  38.9601053  81.3388275
  11.8954519  42.7321737  72.0925260  11.4573949  42.0157596  71.6330897
  12.6364960  42.9597851  71.5310351   8.6855685  37.4218673  78.6137355
   7.8723551  37.7212844  79.0202547   9.1814679  37.0274362  79.3311838
  10.8364263  47.4176430  80.5471620  10.7940442  47.6437277  79.6180152
  11.7526962  47.1839805  80.6957421  14.2829897  37.8860498  87.4452249
  14.6379284  38.1131971  88.3046715  14.9302028  38.2178875  86.8229505
  20.0127634  41.0078934  78.1501578  19.8745532  41.1980530  77.2222767
  19.6563852  41.7698317  78.6069629   8.1769760  34.9937029  84.2298590
   8.8169139  34.8525788  83.5321554   7.3447290  34.7071542  83.8537192
  20.0397013  43.0755461  83.1612850  20.4733520  42.9830750  84.0095904
  20.7528594  43.0512961  82.5232866   8.9530064  44.2939459  80.3433583
   9.7470662  43.7989779  80.1416158   8.2421756  43.7657322  79.9801288
  13.7724908  46.6757555  84.6945950  13.8261930  47.2448491  85.4623666
  12.9039690  46.8459440  84.3299988   5.2612827  38.4382541  76.4193335
   4.3310415  38.3766997  76.6363298   5.3570299  37.9158494  75.6229977
   5.1798376  34.9637354  79.0071577   5.4405194  35.8782687  78.8980738
   6.0015549  34.4961796  79.1568190   6.6523302  36.3775111  86.1770402
   7.3246355  36.1692473  85.5283051   5.8253088  36.1797197  85.7375634
  20.9012563  43.1179161  85.6945735  21.0948453  44.0224972  85.9405010
  20.8013181  42.6586580  86.5284320  12.5548874  33.0037052  88.1936063
  11.9076789  33.7027002  88.1000539  13.3249889  33.4373196  88.5612311
  15.9627672  43.2685904  91.2686616  15.8113178  43.0396456  90.3516699
  15.9532351  44.2256506  91.2817961  12.7313008  40.8417817  86.2532882
  13.6605068  40.9928976  86.0801850  12.3104038  40.9301838  85.3981529
  11.5301340  44.8668481  84.0231420  11.3912425  44.4987266  84.8957358
  10.7415936  45.3816121  83.8515378  12.1249492  49.9677578  75.3656956
  12.3001247  49.4965621  76.1802579  11.4382280  50.5943344  75.5938217
  13.0806555  44.2450084  81.4120258  12.7456387  44.2050854  82.3077908
  12.5810501  43.5794800  80.9390668   7.0550799  39.6517714  86.9372839
   6.9170597  38.9197953  87.5384378   7.9655722  39.5626614  86.6557027
  16.0165746  41.5906118  71.6857317  15.3994917  40.8652946  71.5890370
  15.5482235  42.3515479  71.3424392   9.6833099  39.3637673  86.4256518
  10.3932718  38.7230866  86.3843137   9.6402408  39.6150568  87.3482699
  17.6719878  46.3005027  89.3463098  17.6132424  45.6164247  88.6793681
  18.0739397  47.0424017  88.8943724   8.3962033  36.3502891  88.2452158
   7.8599390  35.8993630  88.8973754   7.8078742  36.4848800  87.5022622
   6.6910577  53.1166941  82.1396817   6.9307175  53.7485465  82.8175835
   5.8479773  52.7654981  82.4262176   7.8064292  35.8091543  70.8078622
   6.9293759  35.6880343  70.4440868   8.2822045  35.0177621  70.5557510
  17.6737285  44.2644611  87.5777077  16.7864064  43.9270532  87.7003476
  18.2435836  43.5327642  87.8145843   4.1301155  35.4858899  85.3305152
   4.0459343  34.8784568  84.5955562   3.3083861  35.9767917  85.3314649
  11.2038439  48.9246063  84.5438321  11.1308610  49.7301034  85.0557625
  10.7615832  49.1238029  83.7186342  10.9928218  48.1617833  78.0541142
  10.2095740  48.7039513  78.1479367  11.6920964  48.6791813  78.4535383
  14.3024869  33.9712462  80.6975347  14.7993568  33.2182425  80.3776418
  13.5311850  34.0076779  80.1318557  22.1554626  39.6752828  82.3393639
  22.1444502  40.5577543  81.9687572  21.2872005  39.3224379  82.1448176
  13.6637122  48.8232897  86.6996479  14.3765095  49.4580362  86.6272381
  13.1727151  48.9196763  85.8836481  15.3854649  42.7284150  78.2713771
  14.4510928  42.8485612  78.1018475  15.5631318  41.8256616  78.0073781
  10.8859837  36.1129845  80.4247032  10.5157625  35.5600886  81.1127938
  11.3818930  35.5087979  79.8722032  18.7727201  38.5701469  78.8063805
  19.2387653  39.4029461  78.7324108  19.2234701  38.1046451  79.5109064
   8.7149036  46.5727340  87.5202050   9.4158495  47.2063823  87.6731444
   8.2444151  46.9142072  86.7597689  16.8403432  44.9145290  75.8049957
  17.1163276  44.8001885  76.7143831  15.9707930  44.5162775  75.7662130
  16.7443863  30.9382056  82.8454706  15.8306943  31.1686283  83.0136913
  17.1736965  31.0220500  83.6968739  16.5150322  39.1271948  85.3454600
  15.8621772  39.3747855  84.6907053  16.8930702  38.3136086  85.0117078
  13.4757496  49.1631641  79.4482771  13.6579890  48.3453297  79.9110523
  14.2990482  49.3799333  79.0107661  13.8099661  48.0899826  76.7097819
  14.3387428  47.5792281  76.0967981  14.0727881  47.7742356  77.5743352
  12.5637895  39.8691759  91.8320637  11.8878532  39.7685888  92.5023013
  13.3865529  39.7130973  92.2956635   4.3116754  46.1063695  84.4533153
   4.8970191  45.3607383  84.5861057   4.1141592  46.4167652  85.3369817
   7.1655409  49.1414943  79.4695595   6.4965784  49.6261071  78.9859635
   7.0268279  49.3884163  80.3838974  11.3060678  51.1758686  86.0678253
  11.8578986  51.3390308  86.8327339  11.6466871  51.7663124  85.3958278
   6.2825171  33.5233836  86.6700138   6.3466497  34.3848667  86.2577536
   6.2192291  32.9107838  85.9372497  16.1571552  46.0019944  91.9226908
  16.7011456  46.6149902  91.4281863  15.5758397  46.5599522  92.4393921
   2.5342986  37.4033398  76.2491527   2.8296427  36.4944076  76.1958581
   1.6331022  37.3821137  75.9272530  14.4429065  49.1240662  83.0541936
  14.3180204  48.3230402  82.5452881  15.1008156  49.6186855  82.5655906
   6.0637233  35.4789394  82.2319076   5.3423819  36.0925362  82.0926549
   6.8530489  36.0147159  82.1535722  16.5063973  46.9249682  84.6821486
  15.5594309  46.8055033  84.6099812  16.8546747  46.0372180  84.7647747
   8.8663547  32.8143821  88.5059728   9.3897949  33.0606117  89.2686037
   8.6475880  33.6463856  88.0862865   4.2630828  35.0847496  76.3730852
   3.9343534  34.2044874  76.1905958   4.6170199  35.0295164  77.2607242
  13.5110407  46.7202398  80.8825838  13.3635369  45.7919106  81.0633408
  14.3363900  46.7422489  80.3982913   7.3772651  35.3720465  76.7406330
   7.7168724  35.9006387  76.0184938   7.8244771  35.7100871  77.5164897
  17.1144529  47.5430957  81.9690711  18.0391076  47.3373818  81.8315162
  16.9459832  47.2947358  82.8780052  10.0716092  33.7557516  86.1909398
   9.7312912  32.9565329  86.5930078   9.3655098  34.0559227  85.6186231
  10.7232564  30.8406828  84.6436721  11.5458633  30.3667307  84.5215611
  10.9670627  31.6197312  85.1435407   9.3640798  33.8695087  74.9399623
  10.0849161  34.2476340  74.4363340   8.7406102  34.5883964  75.0434601
  13.5071921  34.5740236  75.8757955  13.7235535  35.4564874  75.5746783
  13.0265988  34.1826449  75.1463597   8.2471142  37.5325949  82.4528700
   8.1015723  37.8466252  83.3452981   7.7696346  38.1510849  81.8999598
  10.1067525  34.5228497  82.5009589  10.0929094  33.6269590  82.1641887
  10.8239953  34.5299161  83.1347875  11.9593656  34.9565837  84.5462717
  11.7011434  35.8782908  84.5447047  11.4278696  34.5596272  85.2363181
  16.9039845  48.0616624  77.3252802  17.0776722  47.4963047  76.5726655
  17.3968736  48.8617519  77.1432292   2.7216805  40.0731293  85.3916361
   2.1770273  40.8491101  85.5236635   3.5996154  40.4202098  85.2335482
   9.5104421  33.4042877  77.7697159   9.6320332  32.4759524  77.9688047
   9.2206464  33.4181563  76.8575475  12.3795612  31.0897788  80.9063879
  12.4017308  31.1537121  79.9515859  12.7963671  30.2502296  81.1004385
  22.7579236  40.8253047  78.9443102  23.2010382  40.0760373  78.5462225
  21.8805746  40.8163184  78.5616834  17.8915017  47.3783389  74.4249700
  18.5865922  47.9990082  74.6437015  18.2338167  46.5278740  74.7002078
   3.5082826  39.2001190  88.2846518   2.7664562  39.3483825  88.8711148
   3.1875571  39.4609455  87.4213267  19.7906440  44.8283094  75.9537031
  20.3157764  45.1670367  75.2286351  19.7028793  43.8930110  75.7700166
  11.4526489  48.7417168  88.0826908  11.7613616  48.4966315  88.9549607
  12.2501971  48.9463806  87.5945778  11.4747101  50.8955078  80.3132284
  11.0352091  50.4031456  81.0065141  12.2255218  50.3528045  80.0724360
   3.9539440  47.0866618  80.3156912   4.7797460  46.7870390  79.9355556
   3.6033492  46.3174241  80.7646701   8.9220973  46.4393087  82.3854586
   8.3000983  45.7763792  82.0856814   9.5925840  46.4654219  81.7028234
   2.1548045  45.0052945  81.2745846   1.3179953  44.5775119  81.0929847
   2.1271691  45.1985388  82.2116637  19.4800346  45.4615998  91.2588229
  18.6895890  45.4440137  90.7192729  19.2433701  46.0004292  92.0137266
  19.5998221  42.3108464  88.5720958  19.6496226  42.1458472  89.5136480
  19.4912145  41.4435723  88.1818838   8.4834480  44.9897010  75.8613047
   8.6322601  45.6732474  75.2079719   9.2900924  44.9702100  76.3762502
  16.8901984  38.2939392  89.8880264  17.7911847  38.1545857  89.5964262
  16.9649958  38.4593847  90.8278442  11.2244789  35.6706247  88.7333451
  10.3548099  35.9639813  88.4616039  11.4604270  36.2546692  89.4540714
  21.1016418  44.7305406  88.8162979  20.8101227  45.0935386  89.6526440
  20.4888550  44.0172414  88.6376311  22.3012101  42.2958286  81.3365549
  23.1358992  42.7348090  81.5003110  22.4371229  41.8196939  80.5173795
  19.3503607  39.8538021  87.2843037  19.8257728  40.0465667  86.4761889
  18.4269172  39.9097206  87.0386421   6.2387113  41.0162188  76.8674115
   5.9933155  40.1124518  77.0654326   6.4083028  41.0179338  75.9253593
  13.9283823  31.8885864  86.2498871  14.4465767  32.6246891  85.9245360
  13.5738956  32.1949857  87.0845630   5.5082761  36.7490545  74.3660277
   4.8152006  36.8234900  73.7100313   5.2634513  35.9850889  74.8881794
  14.1796417  28.3086147  81.7699768  14.4598171  27.6409336  82.3960194
  14.9647024  28.5015242  81.2574432  11.9829886  47.4845140  73.3324794
  11.4103853  48.1035328  72.8795266  12.5562679  48.0344502  73.8664716
  18.0505276  36.7303781  85.5171343  19.0022698  36.8301878  85.5383567
  17.8808726  35.9382049  86.0269427  16.0719655  33.8159364  85.7030744
  15.4769587  34.0964377  85.0077232  15.7869352  34.3053265  86.4747485
  15.2027145  47.7682291  74.4633376  16.1357819  47.7027852  74.6666252
  15.1150358  48.6038557  74.0047909  17.8315162  47.0848161  71.4237324
  17.7528794  46.7508025  72.3173082  18.6524829  47.5769929  71.4228796
  20.5293353  39.9509900  84.6313642  20.4969673  39.0125901  84.8173326
  21.1393977  40.0293937  83.8979467  12.3676684  38.8205953  70.6740846
  13.3135789  38.6912161  70.7429265  11.9890929  38.0820615  71.1510275
  20.6787842  36.7420944  84.6771926  20.1626890  35.9579400  84.4901854
  21.5627790  36.4139660  84.8418445  18.3398569  30.4861959  80.6367738
  18.1423390  30.1777047  81.5211070  18.9498274  31.2123598  80.7665668
  26.3469903  41.0125907  83.7719679  27.0773292  40.7511195  84.3327383
  25.7376849  40.2754629  83.8121747  24.4285200  39.1533770  84.3694130
  23.7018364  39.0189735  83.7610622  24.0132487  39.4610598  85.1750848
  12.2515377  42.8723699  92.1341503  13.1718386  43.0502298  92.3281550
  12.2164960  41.9279745  91.9821203  10.5519601  36.7455930  70.6095732
   9.6451057  36.4489042  70.6858445  10.8295582  36.4485748  69.7430018
   1.4697542  38.0662293  81.0594778   1.1500326  37.2127601  80.7669152
   0.9230970  38.2810871  81.8152745   5.2477449  40.7824734  84.7764285
   5.4663459  41.7141842  84.7952318   5.6603223  40.4232708  85.5619088
  12.1681667  31.2892819  76.7639973  11.3582395  30.9439904  77.1395219
  12.8566084  30.9800363  77.3527585  14.0972215  30.3670866  78.3864270
  14.6503254  30.7866320  79.0454293  14.3342302  29.4406614  78.4287226
   9.3218386  33.6042865  70.7507711  10.1837550  33.9297763  71.0103528
   9.5068730  32.8174361  70.2380777   1.3385802  41.6865205  83.0287900
   0.6449273  41.2719157  82.5157854   2.0858793  41.7285741  82.4321319
  17.4751022  32.4771391  77.8942934  16.8949692  33.1356195  77.5120986
  17.2086955  31.6548736  77.4830351  15.9254589  31.8776449  80.0964254
  16.4254367  31.9892984  79.2878573  16.5690197  31.5737502  80.7365063
   9.9836585  39.7855079  92.9832095   9.5003666  40.5855439  93.1895984
  10.0697524  39.7963024  92.0299539   3.2522544  41.6183458  80.9053915
   3.2293232  41.7171146  79.9535798   3.5623181  42.4648609  81.2271081
   5.9109922  43.6759613  85.0200529   6.8653176  43.6443556  84.9530461
   5.7122446  43.2150237  85.8350755   6.5009304  42.2460729  87.5871327
   7.3202193  42.7404808  87.6106164   6.7746112  41.3292698  87.5588894
  16.2575900  34.6371482  76.9499282  15.3701756  34.9221132  76.7319477
  16.6729890  34.4765245  76.1026559  19.6090437  34.6618003  80.6653621
  20.3850827  35.1514455  80.9378238  18.8838571  35.0876057  81.1225491
  22.0462995  35.3745622  81.7227562  22.6407486  35.1341358  81.0120870
  22.1189579  34.6552752  82.3501098   4.2660151  49.2179233  82.0370727
   4.1314619  48.4579634  81.4708725   3.8492213  49.9420133  81.5699516
  15.4019114  44.4016156  71.0447302  16.1054964  44.6066159  71.6604958
  14.6781763  44.9692918  71.3096386  16.2316924  40.1526018  77.1649572
  16.1752126  40.6094569  76.3257205  16.7845267  39.3916702  76.9872415
  20.0421730  35.9415750  77.9899692  19.7858664  35.5412385  78.8207900
  19.4174598  36.6559543  77.8649831  24.3534068  38.6811823  80.4970983
  23.7933626  38.7505012  81.2702545  23.7477571  38.5052807  79.7770479
   7.4229277  50.1148550  82.2489170   7.3061661  51.0593982  82.1467860
   6.6021723  49.8122111  82.6374969  17.3105811  44.8398686  73.0945762
  18.1451415  44.4079884  72.9123237  17.1490154  44.6680699  74.0222657
  16.9651704  41.3430799  74.4602102  16.9100507  41.1775070  73.5190546
  16.3397759  42.0506832  74.6164291   1.7544219  36.5798863  88.2863524
   2.4003082  36.0697817  88.7750749   1.5461370  37.3167545  88.8606949
  14.2797611  43.6479711  93.7855664  15.1488770  43.8220363  93.4242299
  13.8004362  44.4674128  93.6631394  10.2747829  30.8438908  74.0387420
  10.2626499  31.7880748  74.1955691  11.1671251  30.6609053  73.7446881
   8.4483791  50.7676812  85.4645098   9.3511038  50.8000422  85.7811593
   8.2221161  49.8377263  85.4791434  10.2037393  49.5207798  82.1255177
   9.2533024  49.5209660  82.0119549  10.5069879  48.7740533  81.6091211
  14.0899948  27.4381685  78.2933357  13.3232344  26.8840171  78.4390039
  14.5010653  27.5103553  79.1547508  25.9390086  55.3568337  83.1900939
  26.5768496  55.2375084  82.4864279  25.8210929  56.3049181  83.2488891
  22.7479793  55.3095765  83.1262464  22.4098304  55.1936829  82.2382999
  23.6169561  54.9086930  83.1063470  18.6066608  57.1631241  79.1159355
  18.0431474  57.0721178  78.3475642  18.4919003  56.3431146  79.5961847
  23.2299576  56.4630617  89.0848669  23.2188216  56.0683415  88.2129173
  23.3920215  55.7296689  89.6782441  16.1531040  58.6582433  81.9543575
  16.9452332  58.3173257  81.5389874  16.3927691  58.7677408  82.8745728
  24.1866167  60.8302209  74.4273820  23.5354147  61.4156289  74.0407833
  24.9810530  61.3608404  74.4868857  18.1121794  57.9191346  74.8260954
  18.8852670  57.3720333  74.6873830  18.4647193  58.7835595  75.0375415
  19.9506837  59.2467728  88.0327853  19.6596703  60.1513359  87.9174519
  20.5863821  59.2884256  88.7471923  20.8763044  56.6244577  84.6229213
  21.4726616  56.4000599  83.9086176  20.9338015  55.8829322  85.2254661
  20.4488072  54.0784012  72.4579404  20.7013593  53.5565533  71.6962867
  19.5112631  53.9150158  72.5606087  25.4931355  53.0819791  80.2654147
  26.2794444  52.6639214  79.9144564  25.7570059  53.9865883  80.4335795
  25.6641432  58.5192641  74.9642804  25.0287265  58.5927267  75.6763708
  25.3338839  59.1086240  74.2861883  30.8939782  53.0195024  81.1687126
  31.6264954  52.4494241  81.4024955  30.1379138  52.6316624  81.6093631
  20.1684361  55.9812118  74.6603779  20.0520619  55.3057022  75.3284863
  20.2786621  55.4944492  73.8435932  22.5115902  55.4422265  78.3650468
  22.1474109  54.9152886  79.0763389  23.3683018  55.0520734  78.1916953
  28.4165202  46.7316598  85.6281734  28.0848527  47.6012009  85.4042949
  27.8210816  46.4152882  86.3075765  22.1521389  50.4712165  73.3611816
  22.3195791  51.3392401  73.7282288  21.9618558  50.6339447  72.4373106
  24.9096722  58.9329144  85.0277647  24.6097445  59.8354183  84.9193454
  24.5647781  58.6661327  85.8798800  18.3609203  55.3842941  81.0614351
  17.4359700  55.2519155  81.2692043  18.6093617  56.1637160  81.5584294
  28.3093866  51.4511684  82.7075084  27.4010743  51.3827092  82.4133845
  28.2581462  51.9283629  83.5356910  22.1310610  52.9269822  74.3458483
  22.0110235  53.3726873  75.1843964  21.4363198  53.2755140  73.7872021
  15.7218014  55.0276214  81.8958140  15.8510396  55.2810693  82.8097552
  15.0415466  55.6203922  81.5762795  19.8917502  65.6973464  77.9948615
  19.8141531  66.6481289  78.0737095  19.2879145  65.3519337  78.6523541
  22.3834731  52.8701330  90.6509981  21.6068066  53.4295250  90.6412846
  23.0225295  53.3558113  91.1724852  30.1755512  49.6528122  84.4852958
  29.5329892  49.9460656  83.8392753  29.6710441  49.5381043  85.2906155
  27.8295676  53.3991296  75.1738817  28.7413532  53.6318682  74.9986515
  27.3205323  53.9828340  74.6113896  20.6381104  55.6786783  90.2127948
  21.3795788  56.2171827  89.9362772  19.9318089  56.3053072  90.3699500
  26.1136443  57.8215923  88.8100110  26.5219799  57.3798334  88.0654742
  25.3913705  57.2468551  89.0634303  22.4667513  52.7588530  86.1833667
  23.3128709  53.1827944  86.3268316  22.4066151  52.1022155  86.8772230
  26.4365258  58.3817114  82.5652399  25.8074121  58.5462828  81.8628467
  26.0490920  58.7958724  83.3363363  30.3154490  59.3171552  79.9196763
  29.6305528  59.6970453  79.3693796  30.3998339  59.9266879  80.6528710
  25.6166959  50.4192899  87.8414841  25.3727891  51.1734959  87.3049116
  25.8926889  50.7978246  88.6762088  27.5705422  56.9631511  86.5192106
  27.7822317  57.6063271  85.8426487  27.5235170  56.1293827  86.0514036
  25.1731651  49.5749332  83.4228678  24.3116130  49.8730585  83.7145416
  25.1994085  49.7919730  82.4909711  21.9893220  58.1191522  79.8302484
  22.4531566  58.3979225  79.0407106  21.7250018  57.2174967  79.6475575
  18.8817301  57.6663004  82.7682247  19.4518658  58.0950272  82.1299732
  19.4725413  57.3845588  83.4666433  20.9262106  54.2414675  76.6392049
  21.6286149  54.6935718  77.1065975  20.5942735  53.5998493  77.2671942
  19.3742468  52.8326431  91.0143258  18.7441128  53.5142712  91.2478655
  19.2678555  52.7209513  90.0696397  14.6687440  52.4998227  81.9409183
  13.8786494  52.7555756  81.4649293  15.1598687  53.3146565  82.0461223
  28.6851250  59.8403466  84.6914463  29.5068693  59.4383654  84.4097145
  28.6813652  59.7371701  85.6430579  16.6202185  52.8642806  78.8992659
  15.8233349  52.9761501  79.4176155  16.3927778  53.2029459  78.0333550
  22.4507853  59.3887510  86.8475174  22.5152286  59.8507917  87.6833346
  21.7418777  58.7584875  86.9757484  12.9525143  52.7528718  84.3724173
  13.2033181  53.6375728  84.6381749  13.4884691  52.5733319  83.5999265
  36.7757243  56.1842215  81.0399435  36.0220951  55.6149613  80.8843439
  36.9104784  56.1504879  81.9870070  22.1655871  61.0555617  76.7154154
  22.0301545  61.9007153  77.1439002  22.7065683  61.2574895  75.9520088
  18.6523210  47.1347197  93.3768509  18.2590156  46.5813396  94.0516154
  19.4689351  47.4457775  93.7675027  15.6185268  58.5731055  77.2882079
  16.1309789  59.3674305  77.4387644  16.2707981  57.8757346  77.2215681
  17.4280153  61.6896811  79.3704833  17.6046781  62.6114776  79.1825816
  18.2236986  61.3755231  79.7999212  21.5691171  48.5505076  90.9688766
  22.3100885  49.1512229  90.8893229  21.8009094  47.8082714  90.4106809
  16.7132509  53.7361443  89.2466996  16.5986024  52.8346701  89.5474095
  15.8577027  53.9825140  88.8951812  23.7924347  61.6779184  90.8454496
  23.3488201  60.8915562  90.5275401  24.4541561  61.8658334  90.1798387
  18.5511468  63.2074985  85.3715175  19.1018893  63.0792049  84.5992169
  17.7122944  63.5069874  85.0210068  25.8905585  61.9581984  88.8735898
  25.8724060  62.7790865  88.3816167  26.8125505  61.8336059  89.0986039
  22.3478639  59.4726113  89.7159406  22.8806976  58.7114401  89.4858714
  21.8192720  59.1799765  90.4583560  25.5148334  44.5786179  85.2453048
  25.1712604  45.4687821  85.1692158  25.8827297  44.3887837  84.3822633
  13.5834185  56.9019709  78.0641650  14.4209407  57.3116718  77.8475358
  13.7612453  55.9619152  78.0341844  25.4798617  54.5694790  73.7525483
  24.9645240  55.3399395  73.9913870  25.2075925  53.8959926  74.3758544
  23.0645728  49.4144491  78.8110721  22.2087324  49.0251341  78.6316360
  23.4772680  49.4936452  77.9510507  24.5944875  46.9490834  83.2102281
  24.0909670  46.9120969  82.3970086  24.8875481  47.8583577  83.2698938
  20.8387760  47.0329564  82.2168463  21.7040757  46.8372373  81.8574352
  20.9065269  46.8039916  83.1437819  30.4532891  57.3227145  75.6878656
  29.6762334  56.9838304  75.2433818  31.1324372  57.3279768  75.0133621
  25.2684920  52.4421882  75.5785264  24.9635056  52.7568031  76.4295407
  26.2215362  52.5203302  75.6212597  23.7131352  58.6012106  77.2278218
  23.1852714  57.8664865  76.9151455  23.2118855  59.3786782  76.9818186
  28.6924198  56.7961126  82.3445264  28.0347872  57.4860387  82.4325393
  29.4964597  57.1857558  82.6879251  18.4450080  49.2631772  79.5884830
  19.0193831  49.0406953  78.8558022  19.0321062  49.3320466  80.3413431
  27.5029657  55.1505499  80.3949206  28.0161539  55.7835491  80.8970916
  28.1530881  54.5506694  80.0292566  18.7719667  51.2936233  73.6080715
  17.9356979  51.6310919  73.9289990  18.6324436  51.1585213  72.6707852
  20.7472747  46.1373021  78.3159899  20.0937160  45.8222038  77.6916514
  20.7053221  45.5148761  79.0419722  21.8583952  56.4192316  70.2313191
  20.9511014  56.1881569  70.4304340  22.3554984  55.6229935  70.4187173
  24.7652031  65.1289823  73.1509877  24.0913730  65.4321520  73.7594835
  25.1517853  65.9318903  72.8015334  23.9810488  52.6254954  82.6407547
  23.0633049  52.8469901  82.4829235  24.3970631  52.7001265  81.7819254
  24.7645535  54.0246370  77.7710227  25.5117354  54.5367767  77.4617349
  25.0337125  53.7030423  78.6314620  23.0372186  56.5204911  74.7537181
  22.1283405  56.2363943  74.8509651  23.0667269  56.9403989  73.8940488
  28.2691453  60.1311500  78.5228349  27.8153780  59.2902410  78.5793539
  27.6385420  60.7672899  78.8603129  27.2124373  51.0603486  79.7529016
  26.4747129  50.5480872  80.0839259  27.4651146  50.6203868  78.9412293
  26.7124392  61.9687997  79.4578167  27.0047367  62.5293054  78.7390532
  27.2223013  62.2616558  80.2131326  27.3136000  43.8379738  80.3470785
  27.6194877  42.9777102  80.0596700  28.0388605  44.4297358  80.1469779
  13.6060356  54.2410425  78.7352383  13.4084756  53.6479786  78.0103450
  13.0507020  53.9362635  79.4528322  21.5857080  54.1333531  80.8546976
  21.6405689  53.1807368  80.7789453  20.7748282  54.2892970  81.3388275
  22.7348273  58.0613654  72.0925260  22.2967703  57.3449513  71.6330897
  23.4758714  58.2889769  71.5310351  19.5249440  52.7510591  78.6137355
  18.7117305  53.0504762  79.0202547  20.0208434  52.3566280  79.3311838
  21.6758017  62.7468348  80.5471620  21.6334196  62.9729194  79.6180152
  22.5920716  62.5131723  80.6957421  25.1223651  53.2152416  87.4452249
  25.4773039  53.4423889  88.3046715  25.7695782  53.5470792  86.8229505
  30.8521388  56.3370851  78.1501578  30.7139287  56.5272447  77.2222767
  30.4957607  57.0990234  78.6069629  19.0163514  50.3228947  84.2298590
  19.6562894  50.1817706  83.5321554  18.1841045  50.0363460  83.8537192
  30.8790768  58.4047378  83.1612850  31.3127274  58.3122667  84.0095904
  31.5922348  58.3804879  82.5232866  19.7923818  59.6231377  80.3433583
  20.5864417  59.1281697  80.1416158  19.0815511  59.0949240  79.9801288
  24.6118663  62.0049473  84.6945950  24.6655685  62.5740409  85.4623666
  23.7433444  62.1751358  84.3299988  16.1006582  53.7674459  76.4193335
  15.1704170  53.7058914  76.6363298  16.1964054  53.2450411  75.6229977
  16.0192131  50.2929272  79.0071577  16.2798948  51.2074605  78.8980738
  16.8409303  49.8253714  79.1568190  17.4917056  51.7067029  86.1770402
  18.1640109  51.4984391  85.5283051  16.6646843  51.5089115  85.7375634
  31.7406317  58.4471079  85.6945735  31.9342207  59.3516890  85.9405010
  31.6406935  57.9878498  86.5284320  23.3942628  48.3328970  88.1936063
  22.7470543  49.0318919  88.1000539  24.1643643  48.7665114  88.5612311
  26.8021426  58.5977822  91.2686616  26.6506932  58.3688373  90.3516699
  26.7926105  59.5548423  91.2817961  23.5706762  56.1709735  86.2532882
  24.4998822  56.3220894  86.0801850  23.1497792  56.2593755  85.3981529
  22.3695094  60.1960399  84.0231420  22.2306180  59.8279183  84.8957358
  21.5809690  60.7108038  83.8515378  22.9643246  65.2969495  75.3656956
  23.1395002  64.8257539  76.1802579  22.2776034  65.9235262  75.5938217
  23.9200309  59.5742002  81.4120258  23.5850142  59.5342772  82.3077908
  23.4204255  58.9086718  80.9390668  17.8944553  54.9809632  86.9372839
  17.7564351  54.2489871  87.5384378  18.8049477  54.8918532  86.6557027
  26.8559501  56.9198036  71.6857317  26.2388672  56.1944864  71.5890370
  26.3875989  57.6807396  71.3424392  20.5226854  54.6929591  86.4256518
  21.2326472  54.0522783  86.3843137  20.4796162  54.9442486  87.3482699
  28.5113633  61.6296944  89.3463098  28.4526179  60.9456164  88.6793681
  28.9133151  62.3715934  88.8943724  19.2355788  51.6794809  88.2452158
  18.6993145  51.2285547  88.8973754  18.6472496  51.8140718  87.5022622
  17.5304331  68.4458858  82.1396817  17.7700930  69.0777382  82.8175835
  16.6873528  68.0946898  82.4262176  18.6458047  51.1383460  70.8078622
  17.7687513  51.0172261  70.4440868  19.1215800  50.3469539  70.5557510
  28.5131040  59.5936528  87.5777077  27.6257819  59.2562450  87.7003476
  29.0829591  58.8619560  87.8145843  10.1660187  55.9260620  80.9020129
  10.8531227  55.6122350  80.3141144  10.0108316  56.8301985  80.6287380
  14.9694909  50.8150817  85.3305152  14.8853098  50.2076486  84.5955562
  14.1477616  51.3059835  85.3314649  22.0432193  64.2537981  84.5438321
  21.9702365  65.0592952  85.0557625  21.6009586  64.4529946  83.7186342
  21.8321973  63.4909751  78.0541142  21.0489495  64.0331431  78.1479367
  22.5314718  64.0083730  78.4535383  25.1418623  49.3004380  80.6975347
  25.6387323  48.5474342  80.3776418  24.3705605  49.3368697  80.1318557
  32.9948380  55.0044746  82.3393639  32.9838257  55.8869461  81.9687572
  32.1265760  54.6516296  82.1448176  24.5030877  64.1524815  86.6996479
  25.2158849  64.7872279  86.6272381  24.0120905  64.2488681  85.8836481
  26.2248404  58.0576067  78.2713771  25.2904682  58.1777530  78.1018475
  26.4025072  57.1548534  78.0073781  21.7253592  51.4421763  80.4247032
  21.3551379  50.8892803  81.1127938  22.2212684  50.8379897  79.8722032
  29.6120955  53.8993387  78.8063805  30.0781407  54.7321378  78.7324108
  30.0628456  53.4338368  79.5109064  19.5542790  61.9019258  87.5202050
  20.2552250  62.5355741  87.6731444  19.0837905  62.2433990  86.7597689
  27.6797186  60.2437208  75.8049957  27.9557030  60.1293802  76.7143831
  26.8101685  59.8454693  75.7662130  27.5837618  46.2673974  82.8454706
  26.6700698  46.4978200  83.0136913  28.0130719  46.3512418  83.6968739
  27.3544076  54.4563866  85.3454600  26.7015527  54.7039773  84.6907053
  27.7324456  53.6428004  85.0117078  24.3151250  64.4923559  79.4482771
  24.4973645  63.6745215  79.9110523  25.1384236  64.7091251  79.0107661
  24.6493416  63.4191744  76.7097819  25.1781182  62.9084198  76.0967981
  24.9121635  63.1034274  77.5743352  23.4031649  55.1983677  91.8320637
  22.7272286  55.0977806  92.5023013  24.2259283  55.0422890  92.2956635
  15.1510508  61.4355613  84.4533153  15.7363945  60.6899301  84.5861057
  14.9535347  61.7459570  85.3369817  18.0049164  64.4706861  79.4695595
  17.3359539  64.9552988  78.9859635  17.8662033  64.7176081  80.3838974
   9.7428163  54.0061213  83.1737596   9.7812263  53.4724804  83.9674714
   9.2368456  53.4796419  82.5548573  22.1454432  66.5050604  86.0678253
  22.6972740  66.6682226  86.8327339  22.4860626  67.0955042  85.3958278
  17.1218925  48.8525754  86.6700138  17.1860252  49.7140585  86.2577536
  17.0586046  48.2399756  85.9372497  16.5971198  50.9248886  90.3173172
  17.2243237  50.5425964  90.9310697  15.7399117  50.7063088  90.6828865
  26.9965307  61.3311862  91.9226908  27.5405211  61.9441820  91.4281863
  26.4152151  61.8891440  92.4393921  13.3736741  52.7325316  76.2491527
  13.6690182  51.8235994  76.1958581  12.4724777  52.7113055  75.9272530
  25.2822820  64.4532580  83.0541936  25.1573959  63.6522319  82.5452881
  25.9401911  64.9478773  82.5655906  16.9030988  50.8081312  82.2319076
  16.1817574  51.4217280  82.0926549  17.6924244  51.3439077  82.1535722
  27.3457728  62.2541600  84.6821486  26.3988063  62.1346951  84.6099812
  27.6940501  61.3664098  84.7647747  19.7057301  48.1435739  88.5059728
  20.2291703  48.3898035  89.2686037  19.4869635  48.9755773  88.0862865
  15.1024582  50.4139413  76.3730852  14.7737288  49.5336792  76.1905958
  15.4563953  50.3587082  77.2607242  24.3504161  62.0494316  80.8825838
  24.2029124  61.1211023  81.0633408  25.1757655  62.0714407  80.3982913
  18.2166405  50.7012383  76.7406330  18.5562478  51.2298304  76.0184938
  18.6638526  51.0392789  77.5164897  27.9538283  62.8722875  81.9690711
  28.8784831  62.6665736  81.8315162  27.7853586  62.6239276  82.8780052
  20.9109846  49.0849434  86.1909398  20.5706667  48.2857247  86.5930078
  20.2048853  49.3851145  85.6186231  21.5626318  46.1698746  84.6436721
  22.3852387  45.6959224  84.5215611  21.8064382  46.9489230  85.1435407
  20.2034553  49.1987005  74.9399623  20.9242915  49.5768257  74.4363340
  19.5799857  49.9175881  75.0434601  24.3465676  49.9032154  75.8757955
  24.5629290  50.7856791  75.5746783  23.8659743  49.5118367  75.1463597
  19.0864897  52.8617867  82.4528700  18.9409478  53.1758170  83.3452981
  18.6090101  53.4802767  81.8999598  20.9461280  49.8520415  82.5009589
  20.9322849  48.9561508  82.1641887  21.6633708  49.8591079  83.1347875
  22.7987410  50.2857755  84.5462717  22.5405188  51.2074826  84.5447047
  22.2672451  49.8888190  85.2363181  27.7433599  63.3908542  77.3252802
  27.9170477  62.8254965  76.5726655  28.2362490  64.1909437  77.1432292
  13.5610559  55.4023211  85.3916361  13.0164027  56.1783019  85.5236635
  14.4389909  55.7494016  85.2335482  20.3498176  48.7334795  77.7697159
  20.4714087  47.8051441  77.9688047  20.0600218  48.7473481  76.8575475
  23.2189366  46.4189705  80.9063879  23.2411063  46.4829039  79.9515859
  23.6357425  45.5794214  81.1004385  33.5972990  56.1544965  78.9443102
  34.0404136  55.4052290  78.5462225  32.7199501  56.1455101  78.5616834
  28.7308772  62.7075307  74.4249700  29.4259676  63.3281999  74.6437015
  29.0731922  61.8570658  74.7002078  14.3476581  54.5293107  88.2846518
  13.6058317  54.6775743  88.8711148  14.0269325  54.7901373  87.4213267
  30.6300195  60.1575012  75.9537031  31.1551519  60.4962285  75.2286351
  30.5422547  59.2222027  75.7700166  22.2920244  64.0709086  88.0826908
  22.6007370  63.8258232  88.9549607  23.0895726  64.2755724  87.5945778
  22.3140856  66.2246995  80.3132284  21.8745846  65.7323374  81.0065141
  23.0648973  65.6819963  80.0724360  14.7933195  62.4158536  80.3156912
  15.6191215  62.1162308  79.9355556  14.4427247  61.6466159  80.7646701
  19.7614728  61.7685004  82.3854586  19.1394737  61.1055709  82.0856814
  20.4319595  61.7946136  81.7028234  12.9941800  60.3344863  81.2745846
  12.1573708  59.9067037  81.0929847  12.9665445  60.5277306  82.2116637
  19.8339255  50.2466792  91.9787092  19.8827411  51.1228915  91.5964862
  20.3761769  49.7044185  91.4058735  30.3194101  60.7907916  91.2588229
  29.5289645  60.7732055  90.7192729  30.0827455  61.3296209  92.0137266
  30.4391976  57.6400382  88.5720958  30.4889981  57.4750389  89.5136480
  30.3305899  56.7727641  88.1818838  19.3228235  60.3188928  75.8613047
  19.4716355  61.0024392  75.2079719  20.1294678  60.2994018  76.3762502
  27.7295738  53.6231310  89.8880264  28.6305601  53.4837775  89.5964262
  27.8043713  53.7885765  90.8278442  22.0638544  50.9998165  88.7333451
  21.1941853  51.2931731  88.4616039  22.2998024  51.5838610  89.4540714
  31.9410173  60.0597324  88.8162979  31.6494981  60.4227304  89.6526440
  31.3282304  59.3464332  88.6376311  33.1405855  57.6250203  81.3365549
  33.9752747  58.0640007  81.5003110  33.2764984  57.1488857  80.5173795
  30.1897361  55.1829938  87.2843037  30.6651483  55.3757584  86.4761889
  29.2662926  55.2389124  87.0386421  17.0780868  56.3454105  76.8674115
  16.8326910  55.4416435  77.0654326  17.2476782  56.3471256  75.9253593
  24.7677578  47.2177782  86.2498871  25.2859521  47.9538809  85.9245360
  24.4132710  47.5241775  87.0845630  16.3476515  52.0782463  74.3660277
  15.6545760  52.1526818  73.7100313  16.1028267  51.3142807  74.8881794
  25.0190172  43.6378064  81.7699768  25.2991925  42.9701253  82.3960194
  25.8040779  43.8307160  81.2574432  22.8223640  62.8137058  73.3324794
  22.2497607  63.4327245  72.8795266  23.3956434  63.3636420  73.8664716
  28.8899030  52.0595698  85.5171343  29.8416453  52.1593796  85.5383567
  28.7202480  51.2673967  86.0269427  26.9113410  49.1451281  85.7030744
  26.3163342  49.4256294  85.0077232  26.6263106  49.6345182  86.4747485
  26.0420900  63.0974208  74.4633376  26.9751573  63.0319770  74.6666252
  25.9544113  63.9330475  74.0047909  28.6708917  62.4140079  71.4237324
  28.5922548  62.0799942  72.3173082  29.4918583  62.9061847  71.4228796
  31.3687108  55.2801818  84.6313642  31.3363428  54.3417819  84.8173326
  31.9787731  55.3585855  83.8979467  23.2070439  54.1497871  70.6740846
  24.1529543  54.0204079  70.7429265  22.8284684  53.4112533  71.1510275
  31.5181596  52.0712861  84.6771926  31.0020645  51.2871318  84.4901854
  32.4021545  51.7431578  84.8418445  29.1792323  45.8153877  80.6367738
  28.9817144  45.5068965  81.5211070  29.7892029  46.5415516  80.7665668
  37.1863658  56.3417825  83.7719679  37.9167046  56.0803113  84.3327383
  36.5770603  55.6046547  83.8121747  35.2678955  54.4825687  84.3694130
  34.5412118  54.3481652  83.7610622  34.8526242  54.7902516  85.1750848
  23.0909131  58.2015617  92.1341503  24.0112141  58.3794216  92.3281550
  23.0558714  57.2571662  91.9821203  21.3913356  52.0747847  70.6095732
  20.4844811  51.7780960  70.6858445  21.6689337  51.7777665  69.7430018
  12.3091296  53.3954211  81.0594778  11.9894081  52.5419519  80.7669152
  11.7624724  53.6102789  81.8152745  16.0871204  56.1116652  84.7764285
  16.3057214  57.0433760  84.7952318  16.4996978  55.7524626  85.5619088
  23.0075422  46.6184737  76.7639973  22.1976150  46.2731822  77.1395219
  23.6959839  46.3092281  77.3527585  24.9365970  45.6962784  78.3864270
  25.4897008  46.1158237  79.0454293  25.1736056  44.7698532  78.4287226
  20.9599069  51.6849857  94.1667034  20.8595796  52.6344214  94.0979125
  20.7420611  51.3568096  93.2943104  20.1612140  48.9334783  70.7507711
  21.0231304  49.2589681  71.0103528  20.3462485  48.1466278  70.2380777
  12.1779556  57.0157122  83.0287900  11.4843028  56.6011075  82.5157854
  12.9252547  57.0577659  82.4321319  28.3144777  47.8063309  77.8942934
  27.7343446  48.4648113  77.5120986  28.0480710  46.9840654  77.4830351
  26.7648343  47.2068367  80.0964254  27.2648122  47.3184901  79.2878573
  27.4083951  46.9029420  80.7365063  20.8230339  55.1146996  92.9832095
  20.3397421  55.9147356  93.1895984  20.9091278  55.1254941  92.0299539
  14.0916299  56.9475376  80.9053915  14.0686987  57.0463063  79.9535798
  14.4016935  57.7940527  81.2271081  16.7503677  59.0051531  85.0200529
  17.7046930  58.9735473  84.9530461  16.5516200  58.5442155  85.8350755
  17.3403059  57.5752647  87.5871327  18.1595948  58.0696726  87.6106164
  17.6139866  56.6584615  87.5588894  27.0969655  49.9663399  76.9499282
  26.2095510  50.2513050  76.7319477  27.5123644  49.8057163  76.1026559
  30.4484191  49.9909920  80.6653621  31.2244581  50.4806373  80.9378238
  29.7232325  50.4167975  81.1225491  32.8856750  50.7037540  81.7227562
  33.4801241  50.4633276  81.0120870  32.9583333  49.9844670  82.3501098
  15.1053905  64.5471151  82.0370727  14.9708373  63.7871551  81.4708725
  14.6885968  65.2712050  81.5699516  26.2412868  59.7308074  71.0447302
  26.9448719  59.9358077  71.6604958  25.5175517  60.2984836  71.3096386
  27.0710679  55.4817935  77.1649572  27.0145880  55.9386487  76.3257205
  27.6239021  54.7208620  76.9872415  30.8815485  51.2707667  77.9899692
  30.6252419  50.8704303  78.8207900  30.2568353  51.9851461  77.8649831
  35.1927822  54.0103740  80.4970983  34.6327380  54.0796930  81.2702545
  34.5871326  53.8344725  79.7770479  18.2623031  65.4440468  82.2489170
  18.1455415  66.3885900  82.1467860  17.4415478  65.1414029  82.6374969
  28.1499566  60.1690603  73.0945762  28.9845170  59.7371802  72.9123237
  27.9883909  59.9972617  74.0222657  27.8045458  56.6722717  74.4602102
  27.7494262  56.5066988  73.5190546  27.1791513  57.3798749  74.6164291
  12.5937973  51.9090781  88.2863524  13.2396837  51.3989735  88.7750749
  12.3855124  52.6459463  88.8606949  25.1191365  58.9771628  93.7855664
  25.9882525  59.1512281  93.4242299  24.6398117  59.7966045  93.6631394
  21.1141583  46.1730826  74.0387420  21.1020253  47.1172665  74.1955691
  22.0065005  45.9900971  73.7446881  19.2877545  66.0968729  85.4645098
  20.1904792  66.1292340  85.7811593  19.0614915  65.1669180  85.4791434
  21.0431147  64.8499716  82.1255177  20.0926778  64.8501578  82.0119549
  21.3463634  64.1032451  81.6091211  24.9293703  42.7673602  78.2933357
  24.1626099  42.2132089  78.4390039  25.3404408  42.8395471  79.1547508
  16.9335464  49.0558398  92.3838538  17.7966926  48.6995203  92.5941863
  16.3600875  48.7172293  93.0713942  36.7783841  70.6860254  83.1900939
  37.4162251  70.5667002  82.4864279  36.6604684  71.6341098  83.2488891
  33.5873547  70.6387682  83.1262464  33.2492059  70.5228747  82.2382999
  34.4563315  70.2378848  83.1063470  29.4460363  72.4923159  79.1159355
  28.8825228  72.4013096  78.3475642  29.3312758  71.6723063  79.5961847
  34.0693330  71.7922534  89.0848669  34.0581971  71.3975332  88.2129173
  34.2313970  71.0588607  89.6782441  26.9924795  73.9874350  81.9543575
  27.7846087  73.6465175  81.5389874  27.2321445  74.0969326  82.8745728
  35.0259922  76.1594127  74.4273820  34.3747901  76.7448207  74.0407833
  35.8204284  76.6900321  74.4868857  28.9515549  73.2483264  74.8260954
  29.7246425  72.7012251  74.6873830  29.3040948  74.1127513  75.0375415
  30.7900591  74.5759646  88.0327853  30.4990457  75.4805277  87.9174519
  31.4257576  74.6176174  88.7471923  31.7156798  71.9536495  84.6229213
  32.3120370  71.7292517  83.9086176  31.7731770  71.2121240  85.2254661
  31.2881827  69.4075930  72.4579404  31.5407347  68.8857451  71.6962867
  30.3506386  69.2442075  72.5606087  36.3325109  68.4111708  80.2654147
  37.1188199  67.9931131  79.9144564  36.5963814  69.3157800  80.4335795
  36.5035187  73.8484559  74.9642804  35.8681020  73.9219185  75.6763708
  36.1732593  74.4378157  74.2861883  41.7333537  68.3486941  81.1687126
  42.4658708  67.7786158  81.4024955  40.9772892  67.9608542  81.6093631
  31.0078115  71.3104036  74.6603779  30.8914373  70.6348939  75.3284863
  31.1180375  70.8236410  73.8435932  33.3509656  70.7714183  78.3650468
  32.9867863  70.2444804  79.0763389  34.2076772  70.3812652  78.1916953
  39.2558957  62.0608516  85.6281734  38.9242282  62.9303926  85.4042949
  38.6604570  61.7444800  86.3075765  32.9915143  65.8004083  73.3611816
  33.1589546  66.6684319  73.7282288  32.8012312  65.9631364  72.4373106
  35.7490476  74.2621062  85.0277647  35.4491200  75.1646100  84.9193454
  35.4041536  73.9953245  85.8798800  29.2002958  70.7134858  81.0614351
  28.2753454  70.5811072  81.2692043  29.4487371  71.4929078  81.5584294
  39.1487620  66.7803602  82.7075084  38.2404498  66.7119010  82.4133845
  39.0975216  67.2575547  83.5356910  32.9704364  68.2561740  74.3458483
  32.8503989  68.7018791  75.1843964  32.2756952  68.6047058  73.7872021
  26.5611769  70.3568132  81.8958140  26.6904150  70.6102611  82.8097552
  25.8809220  70.9495840  81.5762795  30.7311256  81.0265382  77.9948615
  30.6535286  81.9773207  78.0737095  30.1272900  80.6811254  78.6523541
  33.2228486  68.1993247  90.6509981  32.4461820  68.7587167  90.6412846
  33.8619049  68.6850030  91.1724852  41.0149267  64.9820040  84.4852958
  40.3723647  65.2752573  83.8392753  40.5104195  64.8672960  85.2906155
  38.6689430  68.7283213  75.1738817  39.5807286  68.9610600  74.9986515
  38.1599077  69.3120258  74.6113896  31.4774858  71.0078701  90.2127948
  32.2189543  71.5463745  89.9362772  30.7711844  71.6344989  90.3699500
  36.9530198  73.1507841  88.8100110  37.3613554  72.7090252  88.0654742
  36.2307459  72.5760469  89.0634303  33.3061268  68.0880448  86.1833667
  34.1522463  68.5119861  86.3268316  33.2459906  67.4314072  86.8772230
  37.2759013  73.7109032  82.5652399  36.6467875  73.8754746  81.8628467
  36.8884675  74.1250641  83.3363363  41.1548244  74.6463470  79.9196763
  40.4699283  75.0262371  79.3693796  41.2392094  75.2558796  80.6528710
  36.4560713  65.7484816  87.8414841  36.2121645  66.5026877  87.3049116
  36.7320644  66.1270164  88.6762088  38.4099176  72.2923429  86.5192106
  38.6216071  72.9355189  85.8426487  38.3628924  71.4585745  86.0514036
  36.0125405  64.9041249  83.4228678  35.1509884  65.2022503  83.7145416
  36.0387840  65.1211648  82.4909711  32.8286974  73.4483440  79.8302484
  33.2925320  73.7271143  79.0407106  32.5643773  72.5466884  79.6475575
  29.7211056  72.9954921  82.7682247  30.2912413  73.4242190  82.1299732
  30.3119167  72.7137506  83.4666433  31.7655861  69.5706592  76.6392049
  32.4679904  70.0227636  77.1065975  31.4336489  68.9290411  77.2671942
  30.2136222  68.1618349  91.0143258  29.5834883  68.8434630  91.2478655
  30.1072310  68.0501430  90.0696397  25.5081194  67.8290145  81.9409183
  24.7180248  68.0847673  81.4649293  25.9992442  68.6438483  82.0461223
  39.5245004  75.1695384  84.6914463  40.3462448  74.7675571  84.4097145
  39.5207407  75.0663618  85.6430579  27.4595940  68.1934724  78.8992659
  26.6627103  68.3053418  79.4176155  27.2321532  68.5321376  78.0333550
  33.2901607  74.7179427  86.8475174  33.3546040  75.1799835  87.6833346
  32.5812531  74.0876792  86.9757484  23.7918897  68.0820635  84.3724173
  24.0426936  68.9667645  84.6381749  24.3278446  67.9025237  83.5999265
  47.6150997  71.5134133  81.0399435  46.8614705  70.9441531  80.8843439
  47.7498538  71.4796797  81.9870070  33.0049625  76.3847535  76.7154154
  32.8695300  77.2299071  77.1439002  33.5459438  76.5866812  75.9520088
  29.4916965  62.4639115  93.3768509  29.0983910  61.9105313  94.0516154
  30.3083105  62.7749693  93.7675027  26.4579023  73.9022973  77.2882079
  26.9703543  74.6966223  77.4387644  27.1101735  73.2049263  77.2215681
  28.2673907  77.0188729  79.3704833  28.4440536  77.9406694  79.1825816
  29.0630741  76.7047148  79.7999212  32.4084926  63.8796994  90.9688766
  33.1494639  64.4804147  90.8893229  32.6402849  63.1374632  90.4106809
  27.5526264  69.0653361  89.2466996  27.4379779  68.1638618  89.5474095
  26.6970782  69.3117058  88.8951812  34.6318102  77.0071101  90.8454496
  34.1881956  76.2207480  90.5275401  35.2935315  77.1950252  90.1798387
  29.3905223  78.5366903  85.3715175  29.9412648  78.4083966  84.5992169
  28.5516699  78.8361792  85.0210068  36.7299340  77.2873901  88.8735898
  36.7117815  78.1082782  88.3816167  37.6519260  77.1627976  89.0986039
  33.1872394  74.8018031  89.7159406  33.7200731  74.0406319  89.4858714
  32.6586475  74.5091683  90.4583560  36.3542089  59.9078097  85.2453048
  36.0106358  60.7979738  85.1692158  36.7221051  59.7179754  84.3822633
  24.4227939  72.2311627  78.0641650  25.2603161  72.6408636  77.8475358
  24.6006207  71.2911069  78.0341844  36.3192371  69.8986708  73.7525483
  35.8038995  70.6691312  73.9913870  36.0469680  69.2251844  74.3758544
  33.9039482  64.7436409  78.8110721  33.0481079  64.3543259  78.6316360
  34.3166434  64.8228369  77.9510507  35.4338629  62.2782752  83.2102281
  34.9303425  62.2412887  82.3970086  35.7269236  63.1875495  83.2698938
  31.6781515  62.3621482  82.2168463  32.5434512  62.1664290  81.8574352
  31.7459024  62.1331833  83.1437819  41.2926646  72.6519062  75.6878656
  40.5156088  72.3130222  75.2433818  41.9718127  72.6571686  75.0133621
  36.1078675  67.7713800  75.5785264  35.8028810  68.0859949  76.4295407
  37.0609117  67.8495220  75.6212597  34.5525106  73.9304023  77.2278218
  34.0246468  73.1956783  76.9151455  34.0512609  74.7078700  76.9818186
  39.5317952  72.1253044  82.3445264  38.8741627  72.8152305  82.4325393
  40.3358352  72.5149476  82.6879251  29.2843834  64.5923690  79.5884830
  29.8587586  64.3698871  78.8558022  29.8714816  64.6612384  80.3413431
  38.3423411  70.4797416  80.3949206  38.8555293  71.1127408  80.8970916
  38.9924635  69.8798612  80.0292566  29.6113421  66.6228151  73.6080715
  28.7750733  66.9602837  73.9289990  29.4718191  66.4877130  72.6707852
  31.5866502  61.4664938  78.3159899  30.9330914  61.1513956  77.6916514
  31.5446976  60.8440679  79.0419722  32.6977707  71.7484233  70.2313191
  31.7904768  71.5173487  70.4304340  33.1948739  70.9521853  70.4187173
  35.6045786  80.4581741  73.1509877  34.9307484  80.7613437  73.7594835
  35.9911607  81.2610821  72.8015334  34.8204242  67.9546872  82.6407547
  33.9026804  68.1761819  82.4829235  35.2364386  68.0293182  81.7819254
  35.6039290  69.3538288  77.7710227  36.3511109  69.8659685  77.4617349
  35.8730879  69.0322340  78.6314620  33.8765940  71.8496828  74.7537181
  32.9677159  71.5655861  74.8509651  33.9061024  72.2695907  73.8940488
  39.1085207  75.4603418  78.5228349  38.6547535  74.6194328  78.5793539
  38.4779174  76.0964816  78.8603129  38.0518127  66.3895404  79.7529016
  37.3140884  65.8772790  80.0839259  38.3044901  65.9495785  78.9412293
  37.5518147  77.2979915  79.4578167  37.8441121  77.8584972  78.7390532
  38.0616767  77.5908476  80.2131326  38.1529754  59.1671656  80.3470785
  38.4588631  58.3069019  80.0596700  38.8782359  59.7589276  80.1469779
  24.4454110  69.5702342  78.7352383  24.2478510  68.9771703  78.0103450
  23.8900774  69.2654553  79.4528322  32.4250834  69.4625449  80.8546976
  32.4799444  68.5099285  80.7789453  31.6142036  69.6184888  81.3388275
  33.5742028  73.3905572  72.0925260  33.1361458  72.6741431  71.6330897
  34.3152469  73.6181687  71.5310351  30.3643194  68.0802509  78.6137355
  29.5511060  68.3796679  79.0202547  30.8602188  67.6858197  79.3311838
  32.5151772  78.0760266  80.5471620  32.4727951  78.3021112  79.6180152
  33.4314471  77.8423640  80.6957421  35.9617406  68.5444333  87.4452249
  36.3166793  68.7715806  88.3046715  36.6089537  68.8762710  86.8229505
  41.6915143  71.6662769  78.1501578  41.5533041  71.8564365  77.2222767
  41.3351361  72.4282152  78.6069629  29.8557269  65.6520864  84.2298590
  30.4956648  65.5109623  83.5321554  29.0234799  65.3655378  83.8537192
  41.7184522  73.7339296  83.1612850  42.1521029  73.6414585  84.0095904
  42.4316103  73.7096797  82.5232866  30.6317573  74.9523295  80.3433583
  31.4258171  74.4573615  80.1416158  29.9209265  74.4241158  79.9801288
  35.4512417  77.3341390  84.6945950  35.5049439  77.9032326  85.4623666
  34.5827199  77.5043275  84.3299988  26.9400336  69.0966376  76.4193335
  26.0097924  69.0350832  76.6363298  27.0357808  68.5742329  75.6229977
  26.8585885  65.6221189  79.0071577  27.1192703  66.5366522  78.8980738
  27.6803058  65.1545632  79.1568190  28.3310811  67.0358946  86.1770402
  29.0033864  66.8276309  85.5283051  27.5040597  66.8381032  85.7375634
  42.5800072  73.7762997  85.6945735  42.7735962  74.6808807  85.9405010
  42.4800690  73.3170416  86.5284320  34.2336383  63.6620887  88.1936063
  33.5864298  64.3610837  88.1000539  35.0037398  64.0957031  88.5612311
  37.6415180  73.9269739  91.2686616  37.4900687  73.6980291  90.3516699
  37.6319860  74.8840341  91.2817961  34.4100517  71.5001652  86.2532882
  35.3392577  71.6512812  86.0801850  33.9891547  71.5885673  85.3981529
  33.2088849  75.5252317  84.0231420  33.0699934  75.1571101  84.8957358
  32.4203445  76.0399956  83.8515378  33.8037001  80.6261413  75.3656956
  33.9788756  80.1549456  76.1802579  33.1169789  81.2527179  75.5938217
  34.7594064  74.9033919  81.4120258  34.4243896  74.8634689  82.3077908
  34.2598010  74.2378635  80.9390668  28.7338308  70.3101549  86.9372839
  28.5958106  69.5781788  87.5384378  29.6443231  70.2210449  86.6557027
  37.6953255  72.2489954  71.6857317  37.0782426  71.5236782  71.5890370
  37.2269744  73.0099314  71.3424392  31.3620608  70.0221509  86.4256518
  32.0720227  69.3814701  86.3843137  31.3189917  70.2734404  87.3482699
  39.3507387  76.9588862  89.3463098  39.2919933  76.2748082  88.6793681
  39.7526906  77.7007852  88.8943724  30.0749542  67.0086727  88.2452158
  29.5386899  66.5577465  88.8973754  29.4866251  67.1432635  87.5022622
  28.3698086  83.7750776  82.1396817  28.6094684  84.4069300  82.8175835
  27.5267282  83.4238816  82.4262176  29.4851801  66.4675378  70.8078622
  28.6081268  66.3464179  70.4440868  29.9609554  65.6761456  70.5557510
  39.3524794  74.9228446  87.5777077  38.4651573  74.5854368  87.7003476
  39.9223345  74.1911477  87.8145843  21.0053942  71.2552538  80.9020129
  21.6924981  70.9414268  80.3141144  20.8502070  72.1593902  80.6287380
  25.8088664  66.1442734  85.3305152  25.7246852  65.5368404  84.5955562
  24.9871370  66.6351753  85.3314649  32.8825948  79.5829898  84.5438321
  32.8096119  80.3884870  85.0557625  32.4403341  79.7821864  83.7186342
  32.6715727  78.8201668  78.0541142  31.8883249  79.3623349  78.1479367
  33.3708473  79.3375648  78.4535383  35.9812378  64.6296298  80.6975347
  36.4781077  63.8766260  80.3776418  35.2099359  64.6660614  80.1318557
  43.8342135  70.3336663  82.3393639  43.8232011  71.2161379  81.9687572
  42.9659514  69.9808214  82.1448176  35.3424631  79.4816732  86.6996479
  36.0552604  80.1164197  86.6272381  34.8514660  79.5780598  85.8836481
  37.0642158  73.3867985  78.2713771  36.1298437  73.5069447  78.1018475
  37.2418827  72.4840452  78.0073781  32.5647346  66.7713681  80.4247032
  32.1945134  66.2184721  81.1127938  33.0606439  66.1671814  79.8722032
  40.4514710  69.2285304  78.8063805  40.9175162  70.0613296  78.7324108
  40.9022210  68.7630286  79.5109064  30.3936545  77.2311176  87.5202050
  31.0946004  77.8647659  87.6731444  29.9231660  77.5725907  86.7597689
  38.5190941  75.5729126  75.8049957  38.7950785  75.4585720  76.7143831
  37.6495439  75.1746610  75.7662130  38.4231372  61.5965891  82.8454706
  37.5094452  61.8270118  83.0136913  38.8524474  61.6804335  83.6968739
  38.1937831  69.7855783  85.3454600  37.5409281  70.0331691  84.6907053
  38.5718211  68.9719921  85.0117078  35.1545005  79.8215476  79.4482771
  35.3367399  79.0037132  79.9110523  35.9777991  80.0383169  79.0107661
  35.4887170  78.7483662  76.7097819  36.0174937  78.2376116  76.0967981
  35.7515390  78.4326192  77.5743352  34.2425404  70.5275594  91.8320637
  33.5666041  70.4269724  92.5023013  35.0653038  70.3714808  92.2956635
  25.9904263  76.7647531  84.4533153  26.5757700  76.0191219  84.5861057
  25.7929101  77.0751488  85.3369817  28.8442918  79.7998778  79.4695595
  28.1753293  80.2844906  78.9859635  28.7055788  80.0467999  80.3838974
  20.5821918  69.3353131  83.1737596  20.6206017  68.8016722  83.9674714
  20.0762210  68.8088337  82.5548573  32.9848187  81.8342522  86.0678253
  33.5366495  81.9974143  86.8327339  33.3254380  82.4246960  85.3958278
  27.9612680  64.1817672  86.6700138  28.0254006  65.0432502  86.2577536
  27.8979800  63.5691673  85.9372497  27.4364952  66.2540804  90.3173172
  28.0636991  65.8717881  90.9310697  26.5792871  66.0355006  90.6828865
  37.8359061  76.6603779  91.9226908  38.3798965  77.2733738  91.4281863
  37.2545906  77.2183358  92.4393921  24.2130495  68.0617233  76.2491527
  24.5083936  67.1527912  76.1958581  23.3118531  68.0404973  75.9272530
  36.1216574  79.7824497  83.0541936  35.9967713  78.9814237  82.5452881
  36.7795665  80.2770691  82.5655906  27.7424742  66.1373230  82.2319076
  27.0211328  66.7509198  82.0926549  28.5317998  66.6730995  82.1535722
  38.1851482  77.5833517  84.6821486  37.2381818  77.4638869  84.6099812
  38.5334255  76.6956015  84.7647747  30.5451056  63.4727656  88.5059728
  31.0685458  63.7189953  89.2686037  30.3263389  64.3047691  88.0862865
  25.9418337  65.7431331  76.3730852  25.6131043  64.8628710  76.1905958
  26.2957708  65.6879000  77.2607242  35.1897916  77.3786234  80.8825838
  35.0422878  76.4502941  81.0633408  36.0151409  77.4006324  80.3982913
  29.0560160  66.0304301  76.7406330  29.3956232  66.5590222  76.0184938
  29.5032280  66.3684707  77.5164897  38.7932038  78.2014792  81.9690711
  39.7178585  77.9957654  81.8315162  38.6247341  77.9531193  82.8780052
  31.7503601  64.4141351  86.1909398  31.4100421  63.6149164  86.5930078
  31.0442607  64.7143062  85.6186231  32.4020073  61.4990664  84.6436721
  33.2246142  61.0251142  84.5215611  32.6458136  62.2781148  85.1435407
  31.0428307  64.5278922  74.9399623  31.7636670  64.9060175  74.4363340
  30.4193611  65.2467799  75.0434601  35.1859430  65.2324071  75.8757955
  35.4023044  66.1148709  75.5746783  34.7053497  64.8410285  75.1463597
  29.9258651  68.1909784  82.4528700  29.7803232  68.5050088  83.3452981
  29.4483855  68.8094685  81.8999598  31.7855034  65.1812332  82.5009589
  31.7716603  64.2853426  82.1641887  32.5027462  65.1882996  83.1347875
  33.6381165  65.6149673  84.5462717  33.3798943  66.5366743  84.5447047
  33.1066205  65.2180107  85.2363181  38.5827354  78.7200460  77.3252802
  38.7564231  78.1546882  76.5726655  39.0756245  79.5201355  77.1432292
  24.4004314  70.7315129  85.3916361  23.8557782  71.5074937  85.5236635
  25.2783663  71.0785933  85.2335482  31.1891930  64.0626713  77.7697159
  31.3107841  63.1343359  77.9688047  30.8993973  64.0765399  76.8575475
  34.0583121  61.7481623  80.9063879  34.0804817  61.8120956  79.9515859
  34.4751180  60.9086132  81.1004385  44.4366745  71.4836883  78.9443102
  44.8797891  70.7344208  78.5462225  43.5593255  71.4747019  78.5616834
  39.5702526  78.0367224  74.4249700  40.2653431  78.6573917  74.6437015
  39.9125676  77.1862575  74.7002078  25.1870335  69.8585025  88.2846518
  24.4452071  70.0067660  88.8711148  24.8663080  70.1193291  87.4213267
  41.4693949  75.4866930  75.9537031  41.9945273  75.8254202  75.2286351
  41.3816302  74.5513945  75.7700166  33.1313998  79.4001003  88.0826908
  33.4401124  79.1550150  88.9549607  33.9289480  79.6047642  87.5945778
  33.1534610  81.5538913  80.3132284  32.7139600  81.0615292  81.0065141
  33.9042727  81.0111881  80.0724360  25.6326949  77.7450454  80.3156912
  26.4584969  77.4454226  79.9355556  25.2821001  76.9758076  80.7646701
  30.6008482  77.0976922  82.3854586  29.9788492  76.4347627  82.0856814
  31.2713349  77.1238054  81.7028234  23.8335554  75.6636780  81.2745846
  22.9967462  75.2358955  81.0929847  23.8059200  75.8569224  82.2116637
  30.6733010  65.5758710  91.9787092  30.7221165  66.4520833  91.5964862
  31.2155524  65.0336103  91.4058735  41.1587855  76.1199833  91.2588229
  40.3683399  76.1023972  90.7192729  40.9221210  76.6588127  92.0137266
  41.2785730  72.9692300  88.5720958  41.3283735  72.8042307  89.5136480
  41.1699654  72.1019559  88.1818838  30.1621989  75.6480845  75.8613047
  30.3110110  76.3316310  75.2079719  30.9688433  75.6285935  76.3762502
  38.5689493  68.9523228  89.8880264  39.4699356  68.8129693  89.5964262
  38.6437467  69.1177683  90.8278442  32.9032298  66.3290083  88.7333451
  32.0335608  66.6223649  88.4616039  33.1391779  66.9130528  89.4540714
  42.7803927  75.3889241  88.8162979  42.4888736  75.7519222  89.6526440
  42.1676059  74.6756250  88.6376311  43.9799610  72.9542121  81.3365549
  44.8146501  73.3931925  81.5003110  44.1158738  72.4780774  80.5173795
  41.0291116  70.5121856  87.2843037  41.5045237  70.7049502  86.4761889
  40.1056681  70.5681042  87.0386421  27.9174622  71.6746023  76.8674115
  27.6720664  70.7708353  77.0654326  28.0870537  71.6763173  75.9253593
  35.6071332  62.5469699  86.2498871  36.1253276  63.2830726  85.9245360
  35.2526465  62.8533693  87.0845630  27.1870270  67.4074381  74.3660277
  26.4939515  67.4818736  73.7100313  26.9422022  66.6434724  74.8881794
  35.8583926  58.9669982  81.7699768  36.1385680  58.2993171  82.3960194
  36.6434533  59.1599078  81.2574432  33.6617395  78.1428976  73.3324794
  33.0891362  78.7619163  72.8795266  34.2350188  78.6928338  73.8664716
  39.7292785  67.3887616  85.5171343  40.6810207  67.4885714  85.5383567
  39.5596235  66.5965885  86.0269427  37.7507164  64.4743199  85.7030744
  37.1557096  64.7548212  85.0077232  37.4656861  64.9637100  86.4747485
  36.8814654  78.4266126  74.4633376  37.8145328  78.3611688  74.6666252
  36.7937867  79.2622393  74.0047909  39.5102671  77.7431996  71.4237324
  39.4316303  77.4091860  72.3173082  40.3312338  78.2353764  71.4228796
  42.2080862  70.6093736  84.6313642  42.1757182  69.6709736  84.8173326
  42.8181486  70.6877772  83.8979467  34.0464193  69.4789789  70.6740846
  34.9923298  69.3495997  70.7429265  33.6678438  68.7404451  71.1510275
  42.3575351  67.4004779  84.6771926  41.8414399  66.6163236  84.4901854
  43.2415299  67.0723496  84.8418445  40.0186078  61.1445795  80.6367738
  39.8210899  60.8360883  81.5211070  40.6285783  61.8707434  80.7665668
  48.0257412  71.6709742  83.7719679  48.7560801  71.4095031  84.3327383
  47.4164358  70.9338464  83.8121747  46.1072709  69.8117605  84.3694130
  45.3805873  69.6773570  83.7610622  45.6919996  70.1194434  85.1750848
  33.9302886  73.5307535  92.1341503  34.8505895  73.7086134  92.3281550
  33.8952469  72.5863580  91.9821203  32.2307110  67.4039765  70.6095732
  31.3238566  67.1072878  70.6858445  32.5083091  67.1069583  69.7430018
  23.1485051  68.7246128  81.0594778  22.8287835  67.8711437  80.7669152
  22.6018479  68.9394707  81.8152745  26.9264958  71.4408569  84.7764285
  27.1450968  72.3725677  84.7952318  27.3390732  71.0816544  85.5619088
  33.8469176  61.9476655  76.7639973  33.0369904  61.6023740  77.1395219
  34.5353593  61.6384198  77.3527585  35.7759724  61.0254702  78.3864270
  36.3290763  61.4450155  79.0454293  36.0129811  60.0990450  78.4287226
  31.7992824  67.0141775  94.1667034  31.6989550  67.9636132  94.0979125
  31.5814366  66.6860014  93.2943104  31.0005895  64.2626700  70.7507711
  31.8625059  64.5881599  71.0103528  31.1856239  63.4758196  70.2380777
  23.0173311  72.3449040  83.0287900  22.3236782  71.9302993  82.5157854
  23.7646302  72.3869576  82.4321319  39.1538531  63.1355227  77.8942934
  38.5737200  63.7940031  77.5120986  38.8874464  62.3132571  77.4830351
  37.6042098  62.5360284  80.0964254  38.1041876  62.6476819  79.2878573
  38.2477706  62.2321337  80.7365063  31.6624094  70.4438914  92.9832095
  31.1791175  71.2439274  93.1895984  31.7485033  70.4546859  92.0299539
  24.9310053  72.2767294  80.9053915  24.9080741  72.3754981  79.9535798
  25.2410690  73.1232444  81.2271081  27.5897431  74.3343449  85.0200529
  28.5440685  74.3027391  84.9530461  27.3909955  73.8734072  85.8350755
  28.1796813  72.9044565  87.5871327  28.9989702  73.3988643  87.6106164
  28.4533621  71.9876533  87.5588894  37.9363409  65.2955317  76.9499282
  37.0489264  65.5804968  76.7319477  38.3517399  65.1349080  76.1026559
  41.2877946  65.3201838  80.6653621  42.0638336  65.8098290  80.9378238
  40.5626080  65.7459892  81.1225491  43.7250504  66.0329457  81.7227562
  44.3194995  65.7925193  81.0120870  43.7977088  65.3136588  82.3501098
  25.9447660  79.8763068  82.0370727  25.8102128  79.1163469  81.4708725
  25.5279722  80.6003968  81.5699516  37.0806623  75.0599992  71.0447302
  37.7842473  75.2649994  71.6604958  36.3569272  75.6276754  71.3096386
  37.9104433  70.8109853  77.1649572  37.8539635  71.2678404  76.3257205
  38.4632776  70.0500538  76.9872415  41.7209239  66.5999585  77.9899692
  41.4646173  66.1996221  78.8207900  41.0962107  67.3143379  77.8649831
  46.0321577  69.3395658  80.4970983  45.4721135  69.4088847  81.2702545
  45.4265080  69.1636643  79.7770479  29.1016786  80.7732385  82.2489170
  28.9849170  81.7177818  82.1467860  28.2809232  80.4705947  82.6374969
  38.9893320  75.4982521  73.0945762  39.8238924  75.0663719  72.9123237
  38.8277663  75.3264535  74.0222657  38.6439213  72.0014634  74.4602102
  38.5888016  71.8358906  73.5190546  38.0185268  72.7090667  74.6164291
  23.4331727  67.2382699  88.2863524  24.0790591  66.7281653  88.7750749
  23.2248879  67.9751380  88.8606949  35.9585120  74.3063546  93.7855664
  36.8276279  74.4804198  93.4242299  35.4791871  75.1257963  93.6631394
  31.9535338  61.5022743  74.0387420  31.9414008  62.4464583  74.1955691
  32.8458760  61.3192889  73.7446881  30.1271300  81.4260647  85.4645098
  31.0298547  81.4584257  85.7811593  29.9008670  80.4961098  85.4791434
  31.8824902  80.1791634  82.1255177  30.9320533  80.1793495  82.0119549
  32.1857388  79.4324368  81.6091211  35.7687457  58.0965520  78.2933357
  35.0019853  57.5424007  78.4390039  36.1798162  58.1687389  79.1547508
  27.7729218  64.3850316  92.3838538  28.6360680  64.0287121  92.5941863
  27.1994629  64.0464211  93.0713942  47.6177595  86.0152172  83.1900939
  48.2556005  85.8958919  82.4864279  47.4998438  86.9633016  83.2488891
  44.4267302  85.9679600  83.1262464  44.0885813  85.8520665  82.2382999
  45.2957070  85.5670765  83.1063470  40.2854117  87.8215077  79.1159355
  39.7218983  87.7305014  78.3475642  40.1706512  87.0014981  79.5961847
  44.9087085  87.1214452  89.0848669  44.8975725  86.7267250  88.2129173
  45.0707724  86.3880524  89.6782441  37.8318549  89.3166268  81.9543575
  38.6239841  88.9757093  81.5389874  38.0715199  89.4261243  82.8745728
  45.8653676  91.4886044  74.4273820  45.2141656  92.0740125  74.0407833
  46.6598039  92.0192239  74.4868857  39.7909303  88.5775181  74.8260954
  40.5640179  88.0304169  74.6873830  40.1434702  89.4419431  75.0375415
  41.6294346  89.9051564  88.0327853  41.3384212  90.8097195  87.9174519
  42.2651330  89.9468091  88.7471923  42.5550553  87.2828412  84.6229213
  43.1514125  87.0584435  83.9086176  42.6125524  86.5413158  85.2254661
  42.1275581  84.7367848  72.4579404  42.3801102  84.2149369  71.6962867
  41.1900140  84.5733993  72.5606087  47.1718864  83.7403626  80.2654147
  47.9581953  83.3223049  79.9144564  47.4357568  84.6449718  80.4335795
  47.3428941  89.1776476  74.9642804  46.7074774  89.2511103  75.6763708
  47.0126348  89.7670075  74.2861883  52.5727291  83.6778859  81.1687126
  53.3052463  83.1078076  81.4024955  51.8166647  83.2900460  81.6093631
  41.8471870  86.6395953  74.6603779  41.7308128  85.9640857  75.3284863
  41.9574130  86.1528327  73.8435932  44.1903411  86.1006101  78.3650468
  43.8261618  85.5736722  79.0763389  45.0470527  85.7104570  78.1916953
  50.0952711  77.3900433  85.6281734  49.7636036  78.2595844  85.4042949
  49.4998325  77.0736717  86.3075765  43.8308898  81.1296000  73.3611816
  43.9983300  81.9976237  73.7282288  43.6406067  81.2923282  72.4373106
  46.5884231  89.5912979  85.0277647  46.2884954  90.4938018  84.9193454
  46.2435290  89.3245162  85.8798800  40.0396712  86.0426776  81.0614351
  39.1147209  85.9102990  81.2692043  40.2881126  86.8220995  81.5584294
  49.9881375  82.1095519  82.7075084  49.0798252  82.0410928  82.4133845
  49.9368970  82.5867464  83.5356910  43.8098119  83.5853658  74.3458483
  43.6897744  84.0310709  75.1843964  43.1150707  83.9338975  73.7872021
  37.4005523  85.6860050  81.8958140  37.5297905  85.9394529  82.8097552
  36.7202975  86.2787758  81.5762795  41.5705011  96.3557300  77.9948615
  41.4929040  97.3065125  78.0737095  40.9666654  96.0103172  78.6523541
  44.0622240  83.5285165  90.6509981  43.2855575  84.0879085  90.6412846
  44.7012804  84.0141948  91.1724852  51.8543021  80.3111958  84.4852958
  51.2117401  80.6044491  83.8392753  51.3497950  80.1964878  85.2906155
  49.5083185  84.0575131  75.1738817  50.4201041  84.2902518  74.9986515
  48.9992832  84.6412175  74.6113896  42.3168613  86.3370618  90.2127948
  43.0583297  86.8755662  89.9362772  41.6105598  86.9636907  90.3699500
  47.7923952  88.4799759  88.8100110  48.2007308  88.0382169  88.0654742
  47.0701214  87.9052386  89.0634303  44.1455022  83.4172366  86.1833667
  44.9916218  83.8411779  86.3268316  44.0853660  82.7605990  86.8772230
  48.1152767  89.0400949  82.5652399  47.4861630  89.2046664  81.8628467
  47.7278429  89.4542559  83.3363363  51.9941999  89.9755387  79.9196763
  51.3093037  90.3554289  79.3693796  52.0785848  90.5850714  80.6528710
  47.2954468  81.0776734  87.8414841  47.0515400  81.8318794  87.3049116
  47.5714398  81.4562082  88.6762088  49.2492931  87.6215346  86.5192106
  49.4609826  88.2647106  85.8426487  49.2022679  86.7877663  86.0514036
  46.8519160  80.2333167  83.4228678  45.9903639  80.5314421  83.7145416
  46.8781594  80.4503566  82.4909711  43.6680729  88.7775358  79.8302484
  44.1319074  89.0563060  79.0407106  43.4037527  87.8758802  79.6475575
  40.5604810  88.3246839  82.7682247  41.1306167  88.7534107  82.1299732
  41.1512922  88.0429424  83.4666433  42.6049615  84.8998510  76.6392049
  43.3073658  85.3519554  77.1065975  42.2730244  84.2582329  77.2671942
  41.0529977  83.4910267  91.0143258  40.4228637  84.1726547  91.2478655
  40.9466064  83.3793348  90.0696397  36.3474949  83.1582063  81.9409183
  35.5574003  83.4139591  81.4649293  36.8386196  83.9730400  82.0461223
  50.3638759  90.4987302  84.6914463  51.1856202  90.0967489  84.4097145
  50.3601161  90.3955536  85.6430579  38.2989694  83.5226642  78.8992659
  37.5020858  83.6345336  79.4176155  38.0715287  83.8613294  78.0333550
  44.1295362  90.0471345  86.8475174  44.1939794  90.5091752  87.6833346
  43.4206286  89.4168710  86.9757484  34.6312652  83.4112553  84.3724173
  34.8820690  84.2959563  84.6381749  35.1672200  83.2317155  83.5999265
  58.4544752  86.8426050  81.0399435  57.7008460  86.2733448  80.8843439
  58.5892293  86.8088715  81.9870070  43.8443380  91.7139453  76.7154154
  43.7089054  92.5590988  77.1439002  44.3853192  91.9158730  75.9520088
  40.3310719  77.7931032  93.3768509  39.9377665  77.2397231  94.0516154
  41.1476860  78.1041611  93.7675027  37.2972777  89.2314891  77.2882079
  37.8097298  90.0258141  77.4387644  37.9495490  88.5341181  77.2215681
  39.1067662  92.3480647  79.3704833  39.2834290  93.2698612  79.1825816
  39.9024495  92.0339066  79.7999212  43.2478680  79.2088911  90.9688766
  43.9888394  79.8096065  90.8893229  43.4796603  78.4666549  90.4106809
  38.3920018  84.3945279  89.2466996  38.2773533  83.4930536  89.5474095
  37.5364536  84.6408975  88.8951812  45.4711856  92.3363019  90.8454496
  45.0275710  91.5499398  90.5275401  46.1329070  92.5242170  90.1798387
  40.2298977  93.8658821  85.3715175  40.7806402  93.7375884  84.5992169
  39.3910453  94.1653710  85.0210068  47.5693094  92.6165819  88.8735898
  47.5511569  93.4374700  88.3816167  48.4913014  92.4919894  89.0986039
  44.0266148  90.1309948  89.7159406  44.5594485  89.3698237  89.4858714
  43.4980229  89.8383600  90.4583560  47.1935843  75.2370014  85.2453048
  46.8500113  76.1271656  85.1692158  47.5614806  75.0471672  84.3822633
  35.2621694  87.5603545  78.0641650  36.0996916  87.9700553  77.8475358
  35.4399962  86.6202987  78.0341844  47.1586126  85.2278625  73.7525483
  46.6432749  85.9983230  73.9913870  46.8863434  84.5543762  74.3758544
  44.7433237  80.0728326  78.8110721  43.8874833  79.6835177  78.6316360
  45.1560189  80.1520287  77.9510507  46.2732384  77.6074670  83.2102281
  45.7697179  77.5704805  82.3970086  46.5662990  78.5167412  83.2698938
  42.5175269  77.6913399  82.2168463  43.3828266  77.4956208  81.8574352
  42.5852778  77.4623751  83.1437819  52.1320400  87.9810980  75.6878656
  51.3549843  87.6422140  75.2433818  52.8111881  87.9863603  75.0133621
  46.9472429  83.1005718  75.5785264  46.6422565  83.4151867  76.4295407
  47.9002871  83.1787137  75.6212597  45.3918861  89.2595941  77.2278218
  44.8640223  88.5248700  76.9151455  44.8906364  90.0370617  76.9818186
  50.3711707  87.4544961  82.3445264  49.7135381  88.1444223  82.4325393
  51.1752106  87.8441393  82.6879251  40.1237589  79.9215607  79.5884830
  40.6981340  79.6990789  78.8558022  40.7108571  79.9904302  80.3413431
  49.1817166  85.8089334  80.3949206  49.6949048  86.4419326  80.8970916
  49.8318390  85.2090530  80.0292566  40.4507176  81.9520068  73.6080715
  39.6144488  82.2894755  73.9289990  40.3111945  81.8169048  72.6707852
  42.4260256  76.7956856  78.3159899  41.7724669  76.4805873  77.6916514
  42.3840730  76.1732597  79.0419722  43.5371461  87.0776151  70.2313191
  42.6298523  86.8465405  70.4304340  44.0342493  86.2813770  70.4187173
  46.4439540  95.7873658  73.1509877  45.7701239  96.0905355  73.7594835
  46.8305362  96.5902739  72.8015334  45.6597997  83.2838790  82.6407547
  44.7420558  83.5053737  82.4829235  46.0758140  83.3585100  81.7819254
  46.4433044  84.6830205  77.7710227  47.1904863  85.1951603  77.4617349
  46.7124634  84.3614258  78.6314620  44.7159695  87.1788746  74.7537181
  43.8070914  86.8947779  74.8509651  44.7454778  87.5987825  73.8940488
  49.9478962  90.7895336  78.5228349  49.4941289  89.9486245  78.5793539
  49.3172929  91.4256734  78.8603129  48.8911882  81.7187322  79.7529016
  48.1534638  81.2064708  80.0839259  49.1438655  81.2787703  78.9412293
  48.3911901  92.6271832  79.4578167  48.6834876  93.1876889  78.7390532
  48.9010522  92.9200393  80.2131326  48.9923509  74.4963574  80.3470785
  49.2982386  73.6360937  80.0596700  49.7176114  75.0881194  80.1469779
  35.2847865  84.8994260  78.7352383  35.0872265  84.3063621  78.0103450
  34.7294529  84.5946470  79.4528322  43.2644589  84.7917367  80.8546976
  43.3193198  83.8391203  80.7789453  42.4535791  84.9476806  81.3388275
  44.4135782  88.7197490  72.0925260  43.9755212  88.0033349  71.6330897
  45.1546223  88.9473605  71.5310351  41.2036949  83.4094426  78.6137355
  40.3904814  83.7088597  79.0202547  41.6995943  83.0150115  79.3311838
  43.3545526  93.4052183  80.5471620  43.3121705  93.6313030  79.6180152
  44.2708225  93.1715558  80.6957421  46.8011160  83.8736251  87.4452249
  47.1560548  84.1007724  88.3046715  47.4483291  84.2054628  86.8229505
  52.5308897  86.9954687  78.1501578  52.3926796  87.1856283  77.2222767
  52.1745116  87.7574070  78.6069629  40.6951023  80.9812782  84.2298590
  41.3350403  80.8401541  83.5321554  39.8628554  80.6947295  83.8537192
  52.5578277  89.0631214  83.1612850  52.9914783  88.9706503  84.0095904
  53.2709857  89.0388714  82.5232866  41.4711327  90.2815212  80.3433583
  42.2651926  89.7865532  80.1416158  40.7603020  89.7533075  79.9801288
  46.2906172  92.6633308  84.6945950  46.3443194  93.2324244  85.4623666
  45.4220953  92.8335193  84.3299988  37.7794091  84.4258294  76.4193335
  36.8491679  84.3642750  76.6363298  37.8751563  83.9034247  75.6229977
  37.6979640  80.9513107  79.0071577  37.9586457  81.8658440  78.8980738
  38.5196812  80.4837549  79.1568190  39.1704565  82.3650864  86.1770402
  39.8427618  82.1568226  85.5283051  38.3434352  82.1672950  85.7375634
  53.4193826  89.1054914  85.6945735  53.6129716  90.0100725  85.9405010
  53.3194444  88.6462333  86.5284320  45.0730137  78.9912805  88.1936063
  44.4258052  79.6902755  88.1000539  45.8431152  79.4248949  88.5612311
  48.4808935  89.2561657  91.2686616  48.3294441  89.0272209  90.3516699
  48.4713614  90.2132259  91.2817961  45.2494271  86.8293570  86.2532882
  46.1786331  86.9804730  86.0801850  44.8285301  86.9177591  85.3981529
  44.0482603  90.8544234  84.0231420  43.9093689  90.4863019  84.8957358
  43.2597199  91.3691874  83.8515378  44.6430755  95.9553331  75.3656956
  44.8182511  95.4841374  76.1802579  43.9563543  96.5819097  75.5938217
  45.5987818  90.2325837  81.4120258  45.2637651  90.1926607  82.3077908
  45.0991764  89.5670553  80.9390668  39.5732062  85.6393467  86.9372839
  39.4351860  84.9073706  87.5384378  40.4836986  85.5502367  86.6557027
  48.5347010  87.5781871  71.6857317  47.9176181  86.8528700  71.5890370
  48.0663498  88.3391232  71.3424392  42.2014363  85.3513426  86.4256518
  42.9113981  84.7106619  86.3843137  42.1583671  85.6026321  87.3482699
  50.1901142  92.2880780  89.3463098  50.1313688  91.6040000  88.6793681
  50.5920660  93.0299770  88.8943724  40.9143297  82.3378644  88.2452158
  40.3780654  81.8869383  88.8973754  40.3260005  82.4724553  87.5022622
  39.2091840  99.1042694  82.1396817  39.4488439  99.7361218  82.8175835
  38.3661037  98.7530734  82.4262176  40.3245556  81.7967296  70.8078622
  39.4475022  81.6756096  70.4440868  40.8003309  81.0053374  70.5557510
  50.1918549  90.2520364  87.5777077  49.3045328  89.9146285  87.7003476
  50.7617100  89.5203395  87.8145843  31.8447696  86.5844455  80.9020129
  32.5318736  86.2706185  80.3141144  31.6895825  87.4885820  80.6287380
  36.6482418  81.4734652  85.3305152  36.5640607  80.8660321  84.5955562
  35.8265125  81.9643670  85.3314649  43.7219702  94.9121816  84.5438321
  43.6489874  95.7176787  85.0557625  43.2797095  95.1113782  83.7186342
  43.5109482  94.1493586  78.0541142  42.7277004  94.6915266  78.1479367
  44.2102227  94.6667566  78.4535383  46.8206132  79.9588215  80.6975347
  47.3174832  79.2058178  80.3776418  46.0493114  79.9952532  80.1318557
  54.6735889  85.6628581  82.3393639  54.6625766  86.5453296  81.9687572
  53.8053269  85.3100132  82.1448176  46.1818386  94.8108650  86.6996479
  46.8946358  95.4456115  86.6272381  45.6908414  94.9072516  85.8836481
  47.9035913  88.7159903  78.2713771  46.9692191  88.8361365  78.1018475
  48.0812581  87.8132369  78.0073781  43.4041101  82.1005598  80.4247032
  43.0338888  81.5476639  81.1127938  43.9000193  81.4963732  79.8722032
  51.2908464  84.5577222  78.8063805  51.7568916  85.3905214  78.7324108
  51.7415965  84.0922204  79.5109064  41.2330299  92.5603093  87.5202050
  41.9339759  93.1939576  87.6731444  40.7625414  92.9017825  86.7597689
  49.3584695  90.9021043  75.8049957  49.6344539  90.7877638  76.7143831
  48.4889194  90.5038528  75.7662130  49.2625127  76.9257809  82.8454706
  48.3488207  77.1562036  83.0136913  49.6918228  77.0096253  83.6968739
  49.0331585  85.1147701  85.3454600  48.3803036  85.3623608  84.6907053
  49.4111965  84.3011839  85.0117078  45.9938759  95.1507394  79.4482771
  46.1761154  94.3329050  79.9110523  46.8171745  95.3675086  79.0107661
  46.3280925  94.0775579  76.7097819  46.8568691  93.5668034  76.0967981
  46.5909144  93.7618109  77.5743352  45.0819158  85.8567512  91.8320637
  44.4059795  85.7561641  92.5023013  45.9046792  85.7006726  92.2956635
  36.8298017  92.0939449  84.4533153  37.4151454  91.3483136  84.5861057
  36.6322856  92.4043405  85.3369817  39.6836673  95.1290696  79.4695595
  39.0147048  95.6136824  78.9859635  39.5449542  95.3759916  80.3838974
  31.4215672  84.6645049  83.1737596  31.4599772  84.1308639  83.9674714
  30.9155965  84.1380254  82.5548573  43.8241941  97.1634439  86.0678253
  44.3760249  97.3266061  86.8327339  44.1648135  97.7538877  85.3958278
  38.8006434  79.5109589  86.6700138  38.8647761  80.3724420  86.2577536
  38.7373555  78.8983591  85.9372497  38.2758707  81.5832722  90.3173172
  38.9030746  81.2009799  90.9310697  37.4186626  81.3646924  90.6828865
  48.6752816  91.9895697  91.9226908  49.2192720  92.6025655  91.4281863
  48.0939660  92.5475275  92.4393921  35.0524250  83.3909151  76.2491527
  35.3477691  82.4819829  76.1958581  34.1512285  83.3696890  75.9272530
  46.9610328  95.1116415  83.0541936  46.8361468  94.3106155  82.5452881
  47.6189420  95.6062608  82.5655906  38.5818497  81.4665147  82.2319076
  37.8605082  82.0801115  82.0926549  39.3711752  82.0022912  82.1535722
  49.0245237  92.9125435  84.6821486  48.0775572  92.7930786  84.6099812
  49.3728010  92.0247933  84.7647747  41.3844810  78.8019574  88.5059728
  41.9079212  79.0481871  89.2686037  41.1657144  79.6339609  88.0862865
  36.7812091  81.0723249  76.3730852  36.4524797  80.1920627  76.1905958
  37.1351462  81.0170917  77.2607242  46.0291670  92.7078151  80.8825838
  45.8816633  91.7794859  81.0633408  46.8545164  92.7298242  80.3982913
  39.8953914  81.3596218  76.7406330  40.2349987  81.8882140  76.0184938
  40.3426035  81.6976624  77.5164897  49.6325792  93.5306710  81.9690711
  50.5572339  93.3249571  81.8315162  49.4641095  93.2823111  82.8780052
  42.5897355  79.7433269  86.1909398  42.2494176  78.9441082  86.5930078
  41.8836362  80.0434980  85.6186231  43.2413827  76.8282581  84.6436721
  44.0639896  76.3543060  84.5215611  43.4851891  77.6073065  85.1435407
  41.8822062  79.8570840  74.9399623  42.6030424  80.2352093  74.4363340
  41.2587366  80.5759717  75.0434601  46.0253184  80.5615989  75.8757955
  46.2416799  81.4440627  75.5746783  45.5447252  80.1702202  75.1463597
  40.7652406  83.5201702  82.4528700  40.6196987  83.8342005  83.3452981
  40.2877610  84.1386602  81.8999598  42.6248789  80.5104250  82.5009589
  42.6110358  79.6145343  82.1641887  43.3421217  80.5174914  83.1347875
  44.4774919  80.9441590  84.5462717  44.2192697  81.8658661  84.5447047
  43.9459960  80.5472025  85.2363181  49.4221108  94.0492377  77.3252802
  49.5957986  93.4838800  76.5726655  49.9149999  94.8493272  77.1432292
  35.2398068  86.0607047  85.3916361  34.6951536  86.8366854  85.5236635
  36.1177418  86.4077851  85.2335482  42.0285685  79.3918630  77.7697159
  42.1501596  78.4635277  77.9688047  41.7387727  79.4057316  76.8575475
  44.8976875  77.0773541  80.9063879  44.9198572  77.1412874  79.9515859
  45.3144934  76.2378049  81.1004385  55.2760499  86.8128800  78.9443102
  55.7191645  86.0636126  78.5462225  54.3987010  86.8038937  78.5616834
  50.4096281  93.3659142  74.4249700  51.1047185  93.9865835  74.6437015
  50.7519431  92.5154493  74.7002078  36.0264090  85.1876943  88.2846518
  35.2845826  85.3359578  88.8711148  35.7056834  85.4485208  87.4213267
  52.3087704  90.8158847  75.9537031  52.8339028  91.1546120  75.2286351
  52.2210056  89.8805863  75.7700166  43.9707753  94.7292921  88.0826908
  44.2794879  94.4842068  88.9549607  44.7683235  94.9339559  87.5945778
  43.9928365  96.8830831  80.3132284  43.5533355  96.3907209  81.0065141
  44.7436482  96.3403798  80.0724360  36.4720704  93.0742372  80.3156912
  37.2978723  92.7746143  79.9355556  36.1214756  92.3049994  80.7646701
  41.4402237  92.4268840  82.3854586  40.8182246  91.7639545  82.0856814
  42.1107104  92.4529972  81.7028234  34.6729309  90.9928698  81.2745846
  33.8361217  90.5650872  81.0929847  34.6452954  91.1861141  82.2116637
  41.5126764  80.9050628  91.9787092  41.5614920  81.7812751  91.5964862
  42.0549278  80.3628021  91.4058735  51.9981610  91.4491751  91.2588229
  51.2077154  91.4315890  90.7192729  51.7614964  91.9880045  92.0137266
  52.1179485  88.2984217  88.5720958  52.1677490  88.1334225  89.5136480
  52.0093408  87.4311476  88.1818838  41.0015744  90.9772763  75.8613047
  41.1503864  91.6608227  75.2079719  41.8082187  90.9577853  76.3762502
  49.4083247  84.2815145  89.8880264  50.3093110  84.1421610  89.5964262
  49.4831222  84.4469600  90.8278442  43.7426053  81.6582000  88.7333451
  42.8729362  81.9515566  88.4616039  43.9785533  82.2422445  89.4540714
  53.6197682  90.7181159  88.8162979  53.3282490  91.0811139  89.6526440
  53.0069813  90.0048167  88.6376311  54.8193364  88.2834039  81.3365549
  55.6540255  88.7223843  81.5003110  54.9552493  87.8072692  80.5173795
  51.8684870  85.8413774  87.2843037  52.3438992  86.0341420  86.4761889
  50.9450435  85.8972959  87.0386421  38.7568377  87.0037941  76.8674115
  38.5114419  86.1000271  77.0654326  38.9264291  87.0055091  75.9253593
  46.4465087  77.8761617  86.2498871  46.9647030  78.6122644  85.9245360
  46.0920219  78.1825610  87.0845630  38.0264024  82.7366298  74.3660277
  37.3333269  82.8110653  73.7100313  37.7815776  81.9726642  74.8881794
  46.6977681  74.2961900  81.7699768  46.9779434  73.6285089  82.3960194
  47.4828288  74.4890995  81.2574432  44.5011149  93.4720894  73.3324794
  43.9285116  94.0911081  72.8795266  45.0743943  94.0220255  73.8664716
  50.5686539  82.7179534  85.5171343  51.5203962  82.8177631  85.5383567
  50.3989989  81.9257802  86.0269427  48.5900918  79.8035117  85.7030744
  47.9950851  80.0840130  85.0077232  48.3050615  80.2929018  86.4747485
  47.7208409  93.7558044  74.4633376  48.6539082  93.6903605  74.6666252
  47.6331622  94.5914311  74.0047909  50.3496426  93.0723914  71.4237324
  50.2710057  92.7383778  72.3173082  51.1706092  93.5645682  71.4228796
  53.0474617  85.9385653  84.6313642  53.0150937  85.0001654  84.8173326
  53.6575240  86.0169690  83.8979467  44.8857948  84.8081706  70.6740846
  45.8317052  84.6787914  70.7429265  44.5072193  84.0696368  71.1510275
  53.1969105  82.7296697  84.6771926  52.6808154  81.9455153  84.4901854
  54.0809054  82.4015413  84.8418445  50.8579832  76.4737712  80.6367738
  50.6604653  76.1652801  81.5211070  51.4679538  77.1999351  80.7665668
  58.8651167  87.0001660  83.7719679  59.5954555  86.7386948  84.3327383
  58.2558112  86.2630382  83.8121747  56.9466464  85.1409523  84.3694130
  56.2199627  85.0065488  83.7610622  56.5313751  85.4486351  85.1750848
  44.7696640  88.8599452  92.1341503  45.6899650  89.0378051  92.3281550
  44.7346223  87.9155498  91.9821203  43.0700865  82.7331683  70.6095732
  42.1632320  82.4364795  70.6858445  43.3476846  82.4361501  69.7430018
  33.9878805  84.0538046  81.0594778  33.6681590  83.2003354  80.7669152
  33.4412233  84.2686624  81.8152745  37.7658713  86.7700487  84.7764285
  37.9844723  87.7017595  84.7952318  38.1784487  86.4108461  85.5619088
  44.6862931  77.2768572  76.7639973  43.8763659  76.9315657  77.1395219
  45.3747347  76.9676116  77.3527585  46.6153479  76.3546619  78.3864270
  47.1684517  76.7742073  79.0454293  46.8523565  75.4282367  78.4287226
  42.6386578  82.3433693  94.1667034  42.5383305  83.2928050  94.0979125
  42.4208120  82.0151932  93.2943104  41.8399649  79.5918618  70.7507711
  42.7018813  79.9173516  71.0103528  42.0249994  78.8050114  70.2380777
  33.8567065  87.6740958  83.0287900  33.1630537  87.2594910  82.5157854
  34.6040056  87.7161494  82.4321319  49.9932286  78.4647144  77.8942934
  49.4130955  79.1231948  77.5120986  49.7268219  77.6424489  77.4830351
  48.4435852  77.8652202  80.0964254  48.9435631  77.9768737  79.2878573
  49.0871460  77.5613255  80.7365063  42.5017848  85.7730832  92.9832095
  42.0184930  86.5731192  93.1895984  42.5878787  85.7838777  92.0299539
  35.7703808  87.6059211  80.9053915  35.7474496  87.7046899  79.9535798
  36.0804444  88.4524362  81.2271081  38.4291186  89.6635366  85.0200529
  39.3834439  89.6319309  84.9530461  38.2303709  89.2025990  85.8350755
  39.0190568  88.2336482  87.5871327  39.8383457  88.7280561  87.6106164
  39.2927375  87.3168451  87.5588894  48.7757164  80.6247235  76.9499282
  47.8883019  80.9096885  76.7319477  49.1911153  80.4640998  76.1026559
  52.1271700  80.6493756  80.6653621  52.9032090  81.1390208  80.9378238
  51.4019834  81.0751810  81.1225491  54.5644259  81.3621375  81.7227562
  55.1588750  81.1217111  81.0120870  54.6370842  80.6428506  82.3501098
  36.7841414  95.2054986  82.0370727  36.6495882  94.4455387  81.4708725
  36.3673477  95.9295886  81.5699516  47.9200377  90.3891909  71.0447302
  48.6236228  90.5941912  71.6604958  47.1963026  90.9568671  71.3096386
  48.7498188  86.1401771  77.1649572  48.6933389  86.5970322  76.3257205
  49.3026530  85.3792455  76.9872415  52.5602994  81.9291503  77.9899692
  52.3039928  81.5288138  78.8207900  51.9355862  82.6435296  77.8649831
  56.8715331  84.6687576  80.4970983  56.3114889  84.7380765  81.2702545
  56.2658835  84.4928560  79.7770479  39.9410540  96.1024303  82.2489170
  39.8242924  97.0469735  82.1467860  39.1202987  95.7997864  82.6374969
  49.8287075  90.8274439  73.0945762  50.6632679  90.3955637  72.9123237
  49.6671418  90.6556452  74.0222657  49.4832967  87.3306552  74.4602102
  49.4281771  87.1650823  73.5190546  48.8579022  88.0382585  74.6164291
  34.2725482  82.5674616  88.2863524  34.9184346  82.0573570  88.7750749
  34.0642633  83.3043298  88.8606949  46.7978874  89.6355464  93.7855664
  47.6670034  89.8096116  93.4242299  46.3185626  90.4549881  93.6631394
  42.7929092  76.8314661  74.0387420  42.7807762  77.7756501  74.1955691
  43.6852514  76.6484806  73.7446881  40.9665054  96.7552565  85.4645098
  41.8692301  96.7876175  85.7811593  40.7402424  95.8253016  85.4791434
  42.7218656  95.5083551  82.1255177  41.7714287  95.5085413  82.0119549
  43.0251143  94.7616286  81.6091211  46.6081212  73.4257438  78.2933357
  45.8413608  72.8715924  78.4390039  47.0191917  73.4979306  79.1547508
  38.6122973  79.7142233  92.3838538  39.4754435  79.3579038  92.5941863
  38.0388384  79.3756128  93.0713942  58.4571350 101.3444090  83.1900939
  59.0949760 101.2250837  82.4864279  58.3392193 102.2924934  83.2488891
  55.2661056 101.2971518  83.1262464  54.9279568 101.1812583  82.2382999
  56.1350824 100.8962683  83.1063470  51.1247872 103.1506994  79.1159355
  50.5612737 103.0596931  78.3475642  51.0100267 102.3306899  79.5961847
  55.7480839 102.4506370  89.0848669  55.7369480 102.0559168  88.2129173
  55.9101479 101.7172442  89.6782441  48.6712304 104.6458186  81.9543575
  49.4633596 104.3049010  81.5389874  48.9108954 104.7553161  82.8745728
  56.7047431 106.8177962  74.4273820  56.0535410 107.4032042  74.0407833
  57.4991793 107.3484157  74.4868857  50.6303058 103.9067099  74.8260954
  51.4033934 103.3596086  74.6873830  50.9828457 104.7711348  75.0375415
  52.4688100 105.2343481  88.0327853  52.1777966 106.1389112  87.9174519
  53.1045085 105.2760009  88.7471923  53.3944307 102.6120330  84.6229213
  53.9907879 102.3876352  83.9086176  53.4519279 101.8705075  85.2254661
  52.9669336 100.0659765  72.4579404  53.2194856  99.5441286  71.6962867
  52.0293895  99.9025911  72.5606087  58.0112618  99.0695544  80.2654147
  58.7975708  98.6514967  79.9144564  58.2751323  99.9741636  80.4335795
  58.1822696 104.5068394  74.9642804  57.5468529 104.5803020  75.6763708
  57.8520102 105.0961993  74.2861883  63.4121046  99.0070777  81.1687126
  64.1446217  98.4369994  81.4024955  62.6560401  98.6192377  81.6093631
  52.6865624 101.9687871  74.6603779  52.5701882 101.2932775  75.3284863
  52.7967884 101.4820245  73.8435932  55.0297165 101.4298018  78.3650468
  54.6655372 100.9028639  79.0763389  55.8864281 101.0396487  78.1916953
  60.9346466  92.7192351  85.6281734  60.6029791  93.5887762  85.4042949
  60.3392079  92.4028635  86.3075765  54.6702652  96.4587918  73.3611816
  54.8377055  97.3268154  73.7282288  54.4799821  96.6215200  72.4373106
  57.4277985 104.9204897  85.0277647  57.1278708 105.8229936  84.9193454
  57.0829045 104.6537080  85.8798800  50.8790467 101.3718694  81.0614351
  49.9540963 101.2394908  81.2692043  51.1274880 102.1512913  81.5584294
  60.8275129  97.4387437  82.7075084  59.9192007  97.3702845  82.4133845
  60.7762725  97.9159382  83.5356910  54.6491873  98.9145575  74.3458483
  54.5291498  99.3602626  75.1843964  53.9544461  99.2630893  73.7872021
  48.2399278 101.0151967  81.8958140  48.3691659 101.2686446  82.8097552
  47.5596729 101.6079675  81.5762795  52.4098765 111.6849217  77.9948615
  52.3322795 112.6357042  78.0737095  51.8060409 111.3395090  78.6523541
  54.9015995  98.8577083  90.6509981  54.1249329  99.4171003  90.6412846
  55.5406558  99.3433866  91.1724852  62.6936776  95.6403875  84.4852958
  62.0511156  95.9336409  83.8392753  62.1891704  95.5256796  85.2906155
  60.3476939  99.3867049  75.1738817  61.2594795  99.6194435  74.9986515
  59.8386586  99.9704093  74.6113896  53.1562367 101.6662536  90.2127948
  53.8977052 102.2047580  89.9362772  52.4499353 102.2928825  90.3699500
  58.6317707 103.8091676  88.8100110  59.0401063 103.3674087  88.0654742
  57.9094968 103.2344304  89.0634303  54.9848777  98.7464283  86.1833667
  55.8309972  99.1703697  86.3268316  54.9247415  98.0897908  86.8772230
  58.9546522 104.3692867  82.5652399  58.3255384 104.5338581  81.8628467
  58.5672184 104.7834477  83.3363363  62.8335753 105.3047305  79.9196763
  62.1486792 105.6846206  79.3693796  62.9179603 105.9142632  80.6528710
  58.1348222  96.4068652  87.8414841  57.8909154  97.1610712  87.3049116
  58.4108153  96.7853999  88.6762088  60.0886685 102.9507264  86.5192106
  60.3003580 103.5939024  85.8426487  60.0416433 102.1169581  86.0514036
  57.6912914  95.5625085  83.4228678  56.8297393  95.8606338  83.7145416
  57.7175349  95.7795484  82.4909711  54.5074483 104.1067275  79.8302484
  54.9712829 104.3854978  79.0407106  54.2431282 103.2050720  79.6475575
  51.3998565 103.6538757  82.7682247  51.9699922 104.0826025  82.1299732
  51.9906676 103.3721341  83.4666433  53.4443370 100.2290428  76.6392049
  54.1467413 100.6811471  77.1065975  53.1123998  99.5874246  77.2671942
  51.8923731  98.8202184  91.0143258  51.2622392  99.5018465  91.2478655
  51.7859819  98.7085266  90.0696397  47.1868703  98.4873980  81.9409183
  46.3967757  98.7431509  81.4649293  47.6779951  99.3022318  82.0461223
  61.2032513 105.8279219  84.6914463  62.0249957 105.4259407  84.4097145
  61.1994916 105.7247454  85.6430579  49.1383449  98.8518559  78.8992659
  48.3414612  98.9637254  79.4176155  48.9109041  99.1905212  78.0333550
  54.9689116 105.3763263  86.8475174  55.0333549 105.8383670  87.6833346
  54.2600040 104.7460628  86.9757484  45.4706406  98.7404471  84.3724173
  45.7214445  99.6251481  84.6381749  46.0065955  98.5609072  83.5999265
  69.2938506 102.1717968  81.0399435  68.5402214 101.6025366  80.8843439
  69.4286047 102.1380632  81.9870070  54.6837134 107.0431370  76.7154154
  54.5482809 107.8882906  77.1439002  55.2246947 107.2450648  75.9520088
  51.1704474  93.1222950  93.3768509  50.7771419  92.5689149  94.0516154
  51.9870614  93.4333529  93.7675027  48.1366532 104.5606808  77.2882079
  48.6491052 105.3550058  77.4387644  48.7889244 103.8633099  77.2215681
  49.9461416 107.6772564  79.3704833  50.1228045 108.5990529  79.1825816
  50.7418250 107.3630984  79.7999212  54.0872435  94.5380829  90.9688766
  54.8282148  95.1387982  90.8893229  54.3190358  93.7958467  90.4106809
  49.2313773  99.7237196  89.2466996  49.1167288  98.8222454  89.5474095
  48.3758291  99.9700893  88.8951812  56.3105611 107.6654937  90.8454496
  55.8669465 106.8791315  90.5275401  56.9722824 107.8534087  90.1798387
  51.0692732 109.1950738  85.3715175  51.6200157 109.0667802  84.5992169
  50.2304208 109.4945627  85.0210068  58.4086849 107.9457737  88.8735898
  58.3905324 108.7666618  88.3816167  59.3306769 107.8211812  89.0986039
  54.8659903 105.4601866  89.7159406  55.3988240 104.6990154  89.4858714
  54.3373984 105.1675518  90.4583560  58.0329598  90.5661932  85.2453048
  57.6893867  91.4563574  85.1692158  58.4008560  90.3763590  84.3822633
  46.1015448 102.8895463  78.0641650  46.9390670 103.2992471  77.8475358
  46.2793716 101.9494905  78.0341844  57.9979880 100.5570543  73.7525483
  57.4826504 101.3275148  73.9913870  57.7257189  99.8835679  74.3758544
  55.5826991  95.4020244  78.8110721  54.7268588  95.0127094  78.6316360
  55.9953943  95.4812205  77.9510507  57.1126138  92.9366587  83.2102281
  56.6090934  92.8996722  82.3970086  57.4056745  93.8459330  83.2698938
  53.3569024  93.0205317  82.2168463  54.2222021  92.8248126  81.8574352
  53.4246533  92.7915669  83.1437819  62.9714155 103.3102898  75.6878656
  62.1943597 102.9714057  75.2433818  63.6505636 103.3155521  75.0133621
  57.7866184  98.4297635  75.5785264  57.4816319  98.7443784  76.4295407
  58.7396626  98.5079055  75.6212597  56.2312615 104.5887859  77.2278218
  55.7033977 103.8540618  76.9151455  55.7300118 105.3662535  76.9818186
  61.2105461 102.7836879  82.3445264  60.5529136 103.4736140  82.4325393
  62.0145861 103.1733311  82.6879251  50.9631343  95.2507525  79.5884830
  51.5375095  95.0282706  78.8558022  51.5502325  95.3196219  80.3413431
  60.0210920 101.1381252  80.3949206  60.5342802 101.7711244  80.8970916
  60.6712144 100.5382447  80.0292566  51.2900930  97.2811986  73.6080715
  50.4538242  97.6186672  73.9289990  51.1505700  97.1460966  72.6707852
  53.2654011  92.1248774  78.3159899  52.6118423  91.8097791  77.6916514
  53.2234485  91.5024514  79.0419722  54.3765216 102.4068069  70.2313191
  53.4692277 102.1757322  70.4304340  54.8736248 101.6105688  70.4187173
  57.2833294 111.1165576  73.1509877  56.6094993 111.4197273  73.7594835
  57.6699116 111.9194656  72.8015334  56.4991751  98.6130707  82.6407547
  55.5814312  98.8345654  82.4829235  56.9151895  98.6877018  81.7819254
  57.2826799 100.0122123  77.7710227  58.0298618 100.5243520  77.4617349
  57.5518388  99.6906176  78.6314620  55.5553449 102.5080664  74.7537181
  54.6464668 102.2239697  74.8509651  55.5848533 102.9279742  73.8940488
  60.7872716 106.1187253  78.5228349  60.3335044 105.2778163  78.5793539
  60.1566683 106.7548652  78.8603129  59.7305636  97.0479239  79.7529016
  58.9928393  96.5356625  80.0839259  59.9832410  96.6079621  78.9412293
  59.2305656 107.9563750  79.4578167  59.5228630 108.5168807  78.7390532
  59.7404276 108.2492311  80.2131326  59.8317263  89.8255491  80.3470785
  60.1376140  88.9652855  80.0596700  60.5569868  90.4173111  80.1469779
  46.1241619 100.2286178  78.7352383  45.9266019  99.6355539  78.0103450
  45.5688283  99.9238388  79.4528322  54.1038343 100.1209284  80.8546976
  54.1586953  99.1683121  80.7789453  53.2929545 100.2768723  81.3388275
  55.2529537 104.0489407  72.0925260  54.8148967 103.3325266  71.6330897
  55.9939978 104.2765522  71.5310351  52.0430703  98.7386344  78.6137355
  51.2298569  99.0380515  79.0202547  52.5389697  98.3442033  79.3311838
  54.1939281 108.7344101  80.5471620  54.1515460 108.9604947  79.6180152
  55.1101980 108.5007476  80.6957421  57.6404915  99.2028169  87.4452249
  57.9954302  99.4299642  88.3046715  58.2877046  99.5346545  86.8229505
  63.3702652 102.3246604  78.1501578  63.2320550 102.5148200  77.2222767
  63.0138870 103.0865987  78.6069629  51.5344778  96.3104700  84.2298590
  52.1744157  96.1693459  83.5321554  50.7022308  96.0239213  83.8537192
  63.3972031 104.3923131  83.1612850  63.8308538 104.2998421  84.0095904
  64.1103612 104.3680632  82.5232866  52.3105082 105.6107130  80.3433583
  53.1045680 105.1157450  80.1416158  51.5996774 105.0824993  79.9801288
  57.1299926 107.9925226  84.6945950  57.1836948 108.5616162  85.4623666
  56.2614708 108.1627111  84.3299988  48.6187845  99.7550212  76.4193335
  47.6885433  99.6934667  76.6363298  48.7145317  99.2326164  75.6229977
  48.5373394  96.2805025  79.0071577  48.7980211  97.1950358  78.8980738
  49.3590567  95.8129467  79.1568190  50.0098320  97.6942782  86.1770402
  50.6821373  97.4860144  85.5283051  49.1828106  97.4964868  85.7375634
  64.2587581 104.4346832  85.6945735  64.4523471 105.3392643  85.9405010
  64.1588199 103.9754251  86.5284320  55.9123892  94.3204723  88.1936063
  55.2651807  95.0194672  88.1000539  56.6824907  94.7540867  88.5612311
  59.3202689 104.5853575  91.2686616  59.1688196 104.3564127  90.3516699
  59.3107369 105.5424176  91.2817961  56.0888026 102.1585488  86.2532882
  57.0180086 102.3096647  86.0801850  55.6679056 102.2469508  85.3981529
  54.8876358 106.1836152  84.0231420  54.7487443 105.8154936  84.8957358
  54.0990954 106.6983791  83.8515378  55.4824510 111.2845248  75.3656956
  55.6576265 110.8133292  76.1802579  54.7957298 111.9111015  75.5938217
  56.4381573 105.5617755  81.4120258  56.1031405 105.5218525  82.3077908
  55.9385518 104.8962471  80.9390668  50.4125817 100.9685385  86.9372839
  50.2745615 100.2365624  87.5384378  51.3230740 100.8794285  86.6557027
  59.3740764 102.9073789  71.6857317  58.7569935 102.1820617  71.5890370
  58.9057253 103.6683149  71.3424392  53.0408117 100.6805344  86.4256518
  53.7507736 100.0398536  86.3843137  52.9977426 100.9318239  87.3482699
  61.0294896 107.6172697  89.3463098  60.9707442 106.9331918  88.6793681
  61.4314415 108.3591687  88.8943724  51.7537051  97.6670562  88.2452158
  51.2174408  97.2161300  88.8973754  51.1653760  97.8016471  87.5022622
  51.1639310  97.1259213  70.8078622  50.2868777  97.0048014  70.4440868
  51.6397063  96.3345292  70.5557510  61.0312303 105.5812281  87.5777077
  60.1439082 105.2438203  87.7003476  61.6010854 104.8495313  87.8145843
  42.6841451 101.9136373  80.9020129  43.3712490 101.5998103  80.3141144
  42.5289579 102.8177738  80.6287380  47.4876173  96.8026570  85.3305152
  47.4034361  96.1952239  84.5955562  46.6658879  97.2935588  85.3314649
  54.5613457 110.2413734  84.5438321  54.4883628 111.0468705  85.0557625
  54.1190850 110.4405699  83.7186342  54.3503236 109.4785504  78.0541142
  53.5670758 110.0207184  78.1479367  55.0495982 109.9959483  78.4535383
  57.6599887  95.2880133  80.6975347  58.1568586  94.5350095  80.3776418
  56.8886868  95.3244450  80.1318557  65.5129644 100.9920499  82.3393639
  65.5019520 101.8745214  81.9687572  64.6447023 100.6392050  82.1448176
  57.0212140 110.1400568  86.6996479  57.7340113 110.7748033  86.6272381
  56.5302169 110.2364434  85.8836481  58.7429667 104.0451820  78.2713771
  57.8085946 104.1653283  78.1018475  58.9206336 103.1424287  78.0073781
  54.2434855  97.4297516  80.4247032  53.8732643  96.8768557  81.1127938
  54.7393948  96.8255650  79.8722032  62.1302219  99.8869140  78.8063805
  62.5962671 100.7197131  78.7324108  62.5809719  99.4214121  79.5109064
  52.0724054 107.8895011  87.5202050  52.7733513 108.5231494  87.6731444
  51.6019169 108.2309743  86.7597689  60.1978450 106.2312961  75.8049957
  60.4738294 106.1169556  76.7143831  59.3282948 105.8330446  75.7662130
  60.1018881  92.2549727  82.8454706  59.1881961  92.4853953  83.0136913
  60.5311983  92.3388171  83.6968739  59.8725340 100.4439619  85.3454600
  59.2196790 100.6915526  84.6907053  60.2505720  99.6303757  85.0117078
  56.8332514 110.4799312  79.4482771  57.0154908 109.6620968  79.9110523
  57.6565500 110.6967004  79.0107661  57.1674679 109.4067497  76.7097819
  57.6962446 108.8959952  76.0967981  57.4302899 109.0910027  77.5743352
  55.9212913 101.1859430  91.8320637  55.2453550 101.0853559  92.5023013
  56.7440547 101.0298643  92.2956635  47.6691772 107.4231366  84.4533153
  48.2545209 106.6775054  84.5861057  47.4716610 107.7335323  85.3369817
  50.5230427 110.4582614  79.4695595  49.8540802 110.9428741  78.9859635
  50.3843297 110.7051834  80.3838974  42.2609427  99.9936966  83.1737596
  42.2993526  99.4600557  83.9674714  41.7549719  99.4672172  82.5548573
  54.6635696 112.4926357  86.0678253  55.2154004 112.6557979  86.8327339
  55.0041889 113.0830795  85.3958278  49.6400189  94.8401507  86.6700138
  49.7041515  95.7016338  86.2577536  49.5767309  94.2275509  85.9372497
  49.1152461  96.9124639  90.3173172  49.7424500  96.5301717  90.9310697
  48.2580380  96.6938841  90.6828865  45.8918004  98.7201069  76.2491527
  46.1871445  97.8111747  76.1958581  44.9906040  98.6988808  75.9272530
  57.8004083 110.4408333  83.0541936  57.6755222 109.6398072  82.5452881
  58.4583174 110.9354526  82.5655906  49.4212251  96.7957065  82.2319076
  48.6998837  97.4093033  82.0926549  50.2105507  97.3314830  82.1535722
  59.8638991 108.2417353  84.6821486  58.9169327 108.1222704  84.6099812
  60.2121764 107.3539851  84.7647747  52.2238565  94.1311492  88.5059728
  52.7472967  94.3773788  89.2686037  52.0050898  94.9631526  88.0862865
  47.6205846  96.4015166  76.3730852  47.2918552  95.5212545  76.1905958
  47.9745216  96.3462835  77.2607242  56.8685425 108.0370069  80.8825838
  56.7210387 107.1086776  81.0633408  57.6938918 108.0590160  80.3982913
  50.7347669  96.6888136  76.7406330  51.0743741  97.2174057  76.0184938
  51.1819789  97.0268542  77.5164897  60.4719547 108.8598628  81.9690711
  61.3966094 108.6541489  81.8315162  60.3034850 108.6115029  82.8780052
  53.4291110  95.0725187  86.1909398  53.0887930  94.2733000  86.5930078
  52.7230116  95.3726898  85.6186231  54.0807582  92.1574499  84.6436721
  54.9033651  91.6834977  84.5215611  54.3245645  92.9364983  85.1435407
  52.7215816  95.1862758  74.9399623  53.4424179  95.5644010  74.4363340
  52.0981120  95.9051634  75.0434601  56.8646939  95.8907907  75.8757955
  57.0810553  96.7732544  75.5746783  56.3841006  95.4994120  75.1463597
  51.6046160  98.8493620  82.4528700  51.4590741  99.1633923  83.3452981
  51.1271364  99.4678520  81.8999598  53.4642543  95.8396168  82.5009589
  53.4504112  94.9437261  82.1641887  54.1814971  95.8466832  83.1347875
  55.3168674  96.2733508  84.5462717  55.0586452  97.1950579  84.5447047
  54.7853714  95.8763943  85.2363181  60.2614863 109.3784295  77.3252802
  60.4351740 108.8130718  76.5726655  60.7543754 110.1785190  77.1432292
  46.0791823 101.3898964  85.3916361  45.5345291 102.1658772  85.5236635
  46.9571172 101.7369769  85.2335482  52.8679439  94.7210548  77.7697159
  52.9895350  93.7927194  77.9688047  52.5781482  94.7349234  76.8575475
  55.7370630  92.4065459  80.9063879  55.7592326  92.4704792  79.9515859
  56.1538689  91.5669967  81.1004385  66.1154254 102.1420718  78.9443102
  66.5585400 101.3928043  78.5462225  65.2380764 102.1330854  78.5616834
  61.2490035 108.6951060  74.4249700  61.9440940 109.3157752  74.6437015
  61.5913185 107.8446411  74.7002078  46.8657844 100.5168860  88.2846518
  46.1239580 100.6651496  88.8711148  46.5450589 100.7777126  87.4213267
  63.1481458 106.1450765  75.9537031  63.6732782 106.4838038  75.2286351
  63.0603811 105.2097780  75.7700166  54.8101507 110.0584839  88.0826908
  55.1188633 109.8133985  88.9549607  55.6076989 110.2631477  87.5945778
  54.8322119 112.2122748  80.3132284  54.3927109 111.7199127  81.0065141
  55.5830236 111.6695716  80.0724360  47.3114458 108.4034289  80.3156912
  48.1372478 108.1038061  79.9355556  46.9608510 107.6341912  80.7646701
  52.2795991 107.7560757  82.3854586  51.6576001 107.0931462  82.0856814
  52.9500858 107.7821889  81.7028234  45.5123063 106.3220616  81.2745846
  44.6754971 105.8942790  81.0929847  45.4846709 106.5153059  82.2116637
  52.3520519  96.2342545  91.9787092  52.4008674  97.1104668  91.5964862
  52.8943033  95.6919939  91.4058735  62.9573239 103.6276135  88.5720958
  63.0071244 103.4626143  89.5136480  62.8487163 102.7603394  88.1818838
  51.8409498 106.3064681  75.8613047  51.9897619 106.9900145  75.2079719
  52.6475942 106.2869771  76.3762502  60.2477002  99.6107063  89.8880264
  61.1486865  99.4713528  89.5964262  60.3224976  99.7761518  90.8278442
  54.5819807  96.9873918  88.7333451  53.7123117  97.2807484  88.4616039
  54.8179288  97.5714363  89.4540714  64.4591436 106.0473077  88.8162979
  64.1676245 106.4103057  89.6526440  63.8463568 105.3340085  88.6376311
  65.6587119 103.6125956  81.3365549  66.4934010 104.0515760  81.5003110
  65.7946247 103.1364610  80.5173795  62.7078625 101.1705691  87.2843037
  63.1832746 101.3633338  86.4761889  61.7844190 101.2264877  87.0386421
  49.5962131 102.3329858  76.8674115  49.3508173 101.4292188  77.0654326
  49.7658046 102.3347009  75.9253593  57.2858841  93.2053535  86.2498871
  57.8040785  93.9414562  85.9245360  56.9313974  93.5117528  87.0845630
  48.8657779  98.0658216  74.3660277  48.1727024  98.1402571  73.7100313
  48.6209531  97.3018560  74.8881794  57.5371435  89.6253817  81.7699768
  57.8173189  88.9577006  82.3960194  58.3222042  89.8182913  81.2574432
  55.3404904 108.8012811  73.3324794  54.7678871 109.4202998  72.8795266
  55.9137697 109.3512173  73.8664716  61.4080294  98.0471451  85.5171343
  62.3597716  98.1469549  85.5383567  61.2383744  97.2549720  86.0269427
  59.4294673  95.1327035  85.7030744  58.8344605  95.4132047  85.0077232
  59.1444370  95.6220935  86.4747485  58.5602163 109.0849961  74.4633376
  59.4932837 109.0195523  74.6666252  58.4725376 109.9206228  74.0047909
  61.1890180 108.4015832  71.4237324  61.1103812 108.0675695  72.3173082
  62.0099847 108.8937600  71.4228796  63.8868371 101.2677571  84.6313642
  63.8544691 100.3293572  84.8173326  64.4968995 101.3461608  83.8979467
  55.7251702 100.1373624  70.6740846  56.6710807 100.0079832  70.7429265
  55.3465947  99.3988286  71.1510275  64.0362860  98.0588614  84.6771926
  63.5201908  97.2747071  84.4901854  64.9202808  97.7307331  84.8418445
  61.6973587  91.8029630  80.6367738  61.4998408  91.4944718  81.5211070
  62.3073292  92.5291269  80.7665668  69.7044921 102.3293578  83.7719679
  70.4348310 102.0678866  84.3327383  69.0951867 101.5922300  83.8121747
  67.7860218 100.4701440  84.3694130  67.0593382 100.3357405  83.7610622
  67.3707505 100.7778269  85.1750848  55.6090395 104.1891370  92.1341503
  56.5293404 104.3669969  92.3281550  55.5739978 103.2447415  91.9821203
  53.9094619  98.0623600  70.6095732  53.0026075  97.7656713  70.6858445
  54.1870600  97.7653418  69.7430018  44.8272560  99.3829964  81.0594778
  44.5075344  98.5295272  80.7669152  44.2805988  99.5978542  81.8152745
  48.6052467 102.0992405  84.7764285  48.8238477 103.0309513  84.7952318
  49.0178241 101.7400379  85.5619088  55.5256685  92.6060490  76.7639973
  54.7157413  92.2607575  77.1395219  56.2141102  92.2968034  77.3527585
  57.4547233  91.6838537  78.3864270  58.0078272  92.1033990  79.0454293
  57.6917320  90.7574285  78.4287226  53.4780333  97.6725611  94.1667034
  53.3777059  98.6219967  94.0979125  53.2601875  97.3443849  93.2943104
  52.6793404  94.9210536  70.7507711  53.5412568  95.2465434  71.0103528
  52.8643748  94.1342031  70.2380777  44.6960820 103.0032875  83.0287900
  44.0024291 102.5886828  82.5157854  45.4433811 103.0453412  82.4321319
  60.8326040  93.7939062  77.8942934  60.2524709  94.4523866  77.5120986
  60.5661973  92.9716407  77.4830351  59.2829607  93.1944120  80.0964254
  59.7829385  93.3060654  79.2878573  59.9265215  92.8905173  80.7365063
  53.3411603 101.1022749  92.9832095  52.8578684 101.9023109  93.1895984
  53.4272542 101.1130694  92.0299539  46.6097562 102.9351129  80.9053915
  46.5868250 103.0338816  79.9535798  46.9198199 103.7816280  81.2271081
  49.2684940 104.9927284  85.0200529  50.2228194 104.9611226  84.9530461
  49.0697464 104.5317908  85.8350755  49.8584322 103.5628400  87.5871327
  50.6777211 104.0572479  87.6106164  50.1321130 102.6460368  87.5588894
  59.6150918  95.9539152  76.9499282  58.7276773  96.2388803  76.7319477
  60.0304908  95.7932916  76.1026559  62.9665455  95.9785673  80.6653621
  63.7425845  96.4682126  80.9378238  62.2413589  96.4043728  81.1225491
  65.4038013  96.6913293  81.7227562  65.9982504  96.4509029  81.0120870
  65.4764597  95.9720423  82.3501098  58.7594132 105.7183827  71.0447302
  59.4629982 105.9233830  71.6604958  58.0356781 106.2860589  71.3096386
  59.5891942 101.4693688  77.1649572  59.5327144 101.9262240  76.3257205
  60.1420285 100.7084373  76.9872415  63.3996748  97.2583420  77.9899692
  63.1433682  96.8580056  78.8207900  62.7749616  97.9727214  77.8649831
  67.7109086  99.9979493  80.4970983  67.1508644 100.0672683  81.2702545
  67.1052589  99.8220478  79.7770479  60.6680829 106.1566356  73.0945762
  61.5026433 105.7247555  72.9123237  60.5065172 105.9848370  74.0222657
  60.3226721 102.6598470  74.4602102  60.2675525 102.4942741  73.5190546
  59.6972777 103.3674503  74.6164291  45.1119236  97.8966534  88.2863524
  45.7578100  97.3865488  88.7750749  44.9036388  98.6335216  88.8606949
  53.6322847  92.1606579  74.0387420  53.6201517  93.1048419  74.1955691
  54.5246269  91.9776724  73.7446881  51.8058809 112.0844482  85.4645098
  52.7086056 112.1168093  85.7811593  51.5796179 111.1544933  85.4791434
  53.5612411 110.8375469  82.1255177  52.6108042 110.8377331  82.0119549
  53.8644897 110.0908204  81.6091211  57.4474966  88.7549355  78.2933357
  56.6807362  88.2007842  78.4390039  57.8585671  88.8271224  79.1547508
  49.4516727  95.0434151  92.3838538  50.3148189  94.6870956  92.5941863
  48.8782138  94.7048046  93.0713942  63.8063090 115.3951683  72.4579404
  64.0588611 114.8733204  71.6962867  62.8687649 115.2317828  72.5606087
  68.8506373 114.3987461  80.2654147  69.6369462 113.9806884  79.9144564
  69.1145077 115.3033553  80.4335795  65.8690920 116.7589936  78.3650468
  65.5049127 116.2320557  79.0763389  66.7258036 116.3688405  78.1916953
  65.5096407 111.7879836  73.3611816  65.6770809 112.6560072  73.7282288
  65.3193576 111.9507117  72.4373106  65.4885628 114.2437493  74.3458483
  65.3685253 114.6894544  75.1843964  64.7938216 114.5922811  73.7872021
  71.1870694 114.7158966  75.1738817  72.0988550 114.9486353  74.9986515
  70.6780341 115.2996011  74.6113896  68.5306669 110.8917002  83.4228678
  67.6691148 111.1898256  83.7145416  68.5569103 111.1087401  82.4909711
  64.2837124 115.5582345  76.6392049  64.9861167 116.0103389  77.1065975
  63.9517752 114.9166164  77.2671942  58.0262458 113.8165898  81.9409183
  57.2361512 114.0723426  81.4649293  58.5173705 114.6314236  82.0461223
  59.9777203 114.1810477  78.8992659  59.1808367 114.2929171  79.4176155
  59.7502796 114.5197129  78.0333550  68.8723352 105.8953850  85.2453048
  68.5287622 106.7855491  85.1692158  69.2402315 105.7055507  84.3822633
  68.8373635 115.8862461  73.7525483  68.3220258 116.6567065  73.9913870
  68.5650943 115.2127597  74.3758544  66.4220746 110.7312162  78.8110721
  65.5662342 110.3419012  78.6316360  66.8347698 110.8104122  77.9510507
  67.9519893 108.2658505  83.2102281  67.4484688 108.2288640  82.3970086
  68.2450499 109.1751248  83.2698938  64.1962778 108.3497235  82.2168463
  65.0615775 108.1540043  81.8574352  64.2640287 108.1207586  83.1437819
  73.8107909 118.6394815  75.6878656  73.0337352 118.3005975  75.2433818
  74.4899390 118.6447439  75.0133621  68.6259938 113.7589553  75.5785264
  68.3210074 114.0735702  76.4295407  69.5790380 113.8370973  75.6212597
  61.8025098 110.5799443  79.5884830  62.3768849 110.3574624  78.8558022
  62.3896080 110.6488137  80.3413431  62.1294685 112.6103904  73.6080715
  61.2931997 112.9478590  73.9289990  61.9899454 112.4752883  72.6707852
  64.1047765 107.4540691  78.3159899  63.4512178 107.1389709  77.6916514
  64.0628239 106.8316432  79.0419722  67.3385506 113.9422625  82.6407547
  66.4208067 114.1637572  82.4829235  67.7545649 114.0168935  81.7819254
  68.1220553 115.3414041  77.7710227  68.8692372 115.8535438  77.4617349
  68.3912143 115.0198093  78.6314620  70.5699391 112.3771157  79.7529016
  69.8322147 111.8648543  80.0839259  70.8226164 111.9371539  78.9412293
  70.6711018 105.1547409  80.3470785  70.9769895 104.2944772  80.0596700
  71.3963623 105.7465029  80.1469779  64.9432098 115.4501202  80.8546976
  64.9980707 114.4975038  80.7789453  64.1323300 115.6060641  81.3388275
  62.8824457 114.0678262  78.6137355  62.0692323 114.3672432  79.0202547
  63.3783452 113.6733951  79.3311838  74.2096406 117.6538522  78.1501578
  74.0714305 117.8440118  77.2222767  73.8532625 118.4157905  78.6069629
  62.3738532 111.6396617  84.2298590  63.0137912 111.4985376  83.5321554
  61.5416063 111.3531131  83.8537192  59.3767149 111.6096942  79.0071577
  59.6373966 112.5242275  78.8980738  60.1984321 111.1421385  79.1568190
  60.8492074 113.0234699  86.1770402  61.5215127 112.8152062  85.5283051
  60.0221861 112.8256785  85.7375634  62.0033065 112.4551131  70.8078622
  61.1262531 112.3339932  70.4440868  62.4790818 111.6637209  70.5557510
  58.3269927 112.1318487  85.3305152  58.2428116 111.5244157  84.5955562
  57.5052634 112.6227506  85.3314649  68.4993641 110.6172051  80.6975347
  68.9962341 109.8642013  80.3776418  67.7280623 110.6536367  80.1318557
  65.0828610 112.7589434  80.4247032  64.7126397 112.2060474  81.1127938
  65.5787702 112.1547567  79.8722032  72.9695973 115.2161057  78.8063805
  73.4356425 116.0489049  78.7324108  73.4203474 114.7506039  79.5109064
  70.9412636 107.5841644  82.8454706  70.0275716 107.8145871  83.0136913
  71.3705737 107.6680088  83.6968739  60.4793943 110.1693425  86.6700138
  60.5435270 111.0308256  86.2577536  60.4161064 109.5567426  85.9372497
  60.2606006 112.1248983  82.2319076  59.5392591 112.7384951  82.0926549
  61.0499261 112.6606748  82.1535722  58.4599600 111.7307084  76.3730852
  58.1312306 110.8504463  76.1905958  58.8138971 111.6754753  77.2607242
  61.5741423 112.0180054  76.7406330  61.9137496 112.5465975  76.0184938
  62.0213544 112.3560460  77.5164897  64.2684864 110.4017104  86.1909398
  63.9281685 109.6024917  86.5930078  63.5623871 110.7018815  85.6186231
  64.9201336 107.4866417  84.6436721  65.7427405 107.0126895  84.5215611
  65.1639400 108.2656901  85.1435407  63.5609571 110.5154675  74.9399623
  64.2817933 110.8935928  74.4363340  62.9374875 111.2343552  75.0434601
  67.7040693 111.2199824  75.8757955  67.9204308 112.1024462  75.5746783
  67.2234761 110.8286038  75.1463597  62.4439915 114.1785537  82.4528700
  62.2984496 114.4925841  83.3452981  61.9665118 114.7970438  81.8999598
  64.3036298 111.1688085  82.5009589  64.2897866 110.2729179  82.1641887
  65.0208726 111.1758749  83.1347875  66.1562428 111.6025426  84.5462717
  65.8980206 112.5242496  84.5447047  65.6247469 111.2055860  85.2363181
  63.7073194 110.0502466  77.7697159  63.8289105 109.1219112  77.9688047
  63.4175236 110.0641152  76.8575475  66.5764384 107.7357376  80.9063879
  66.5986081 107.7996709  79.9515859  66.9932443 106.8961885  81.1004385
  59.7051533 113.3950134  74.3660277  59.0120778 113.4694489  73.7100313
  59.4603285 112.6310477  74.8881794  68.3765190 104.9545735  81.7699768
  68.6566943 104.2868924  82.3960194  69.1615797 105.1474831  81.2574432
  66.5645457 115.4665542  70.6740846  67.5104561 115.3371750  70.7429265
  66.1859702 114.7280204  71.1510275  72.5367341 107.1321548  80.6367738
  72.3392162 106.8236636  81.5211070  73.1467047 107.8583187  80.7665668
  64.7488374 113.3915518  70.6095732  63.8419829 113.0948631  70.6858445
  65.0264355 113.0945336  69.7430018  66.3650440 107.9352408  76.7639973
  65.5551168 107.5899493  77.1395219  67.0534856 107.6259951  77.3527585
  68.2940988 107.0130455  78.3864270  68.8472026 107.4325908  79.0454293
  68.5311074 106.0866203  78.4287226  63.5187158 110.2502453  70.7507711
  64.3806322 110.5757352  71.0103528  63.7037503 109.4633949  70.2380777
  71.6719795 109.1230980  77.8942934  71.0918464 109.7815784  77.5120986
  71.4055728 108.3008324  77.4830351  70.1223361 108.5236037  80.0964254
  70.6223140 108.6352572  79.2878573  70.7658969 108.2197090  80.7365063
  70.4544673 111.2831070  76.9499282  69.5670528 111.5680721  76.7319477
  70.8698662 111.1224833  76.1026559  73.8059209 111.3077591  80.6653621
  74.5819599 111.7974044  80.9378238  73.0807343 111.7335645  81.1225491
  70.4285697 116.7985606  77.1649572  70.3720898 117.2554157  76.3257205
  70.9814039 116.0376291  76.9872415  74.2390503 112.5875338  77.9899692
  73.9827437 112.1871974  78.8207900  73.6143371 113.3019132  77.8649831
  71.1620476 117.9890387  74.4602102  71.1069280 117.8234659  73.5190546
  70.5366531 118.6966420  74.6164291  64.4716601 107.4898496  74.0387420
  64.4595271 108.4340336  74.1955691  65.3640023 107.3068642  73.7446881
  68.2868721 104.0841273  78.2933357  67.5201117 103.5299760  78.4390039
  68.6979426 104.1563142  79.1547508  15.0996333  17.0338542  69.9146246
  15.7374743  16.9145289  69.2109586  14.9817176  17.9819386  69.9734198
  11.9086039  16.9865970  69.8507770  11.5704551  16.8707034  68.9628305
  12.7775808  16.5857135  69.8308776   7.7672855  18.8401446  65.8404661
   7.2037720  18.7491383  65.0720949   7.6525250  18.0201351  66.3207154
  12.3905822  18.1400821  75.8093976  12.3794463  17.7453620  74.9374479
  12.5526462  17.4066894  76.4027747   5.3137287  20.3352638  68.6788882
   6.1058579  19.9943462  68.2635181   5.5533937  20.4447613  69.5991035
  13.3472414  22.5072414  61.1519126  12.6960394  23.0926494  60.7653140
  14.1416777  23.0378609  61.2114164   7.2728041  19.5961551  61.5506260
   8.0458917  19.0490538  61.4119136   7.6253440  20.4605800  61.7620722
   9.1113084  20.9237933  74.7573160   8.8202950  21.8283564  74.6419826
   9.7470068  20.9654461  75.4717229  10.0369290  18.3014782  71.3474519
  10.6332863  18.0770804  70.6331482  10.0944262  17.5599527  71.9499967
   9.6094319  15.7554217  59.1824710   9.8619840  15.2335738  58.4208173
   8.6718878  15.5920363  59.2851394  14.6537602  14.7589995  66.9899454
  15.4400691  14.3409419  66.6389871  14.9176306  15.6636088  67.1581102
  14.8247679  20.1962846  61.6888110  14.1893512  20.2697472  62.4009015
  14.4945085  20.7856445  61.0107190  20.0546029  14.6965229  67.8932432
  20.7871201  14.1264445  68.1270262  19.2985385  14.3086829  68.3338938
   9.3290608  17.6582323  61.3849085   9.2126866  16.9827226  62.0530170
   9.4392868  17.1714697  60.5681238  11.6722149  17.1192470  65.0895775
  11.3080356  16.5923091  65.8008696  12.5289264  16.7290939  64.9162260
  17.5771449   8.4086803  72.3527041  17.2454774   9.2782214  72.1288256
  16.9817063   8.0923087  73.0321071  11.3127636  12.1482370  60.0857123
  11.4802038  13.0162606  60.4527594  11.1224805  12.3109652  59.1618412
  14.0702969  20.6099349  71.7522953  13.7703692  21.5124388  71.6438761
  13.7254028  20.3431532  72.6044106   7.5215450  17.0613146  67.7859658
   6.5965947  16.9289360  67.9937350   7.7699863  17.8407365  68.2829600
  17.4700113  13.1281889  69.4320391  16.5616990  13.0597297  69.1379152
  17.4187708  13.6053834  70.2602216  11.2916856  14.6040027  61.0703790
  11.1716482  15.0497078  61.9089270  10.5969445  14.9525345  60.5117328
   4.8824261  16.7046419  68.6203447   5.0116642  16.9580898  69.5342859
   4.2021713  17.2974127  68.3008102   9.0523749  27.3743669  64.7193921
   8.9747778  28.3251494  64.7982402   8.4485392  27.0289542  65.3768847
  11.5440978  14.5471535  77.3755288  10.7674312  15.1065455  77.3658153
  12.1831541  15.0328318  77.8970158  19.3361759  11.3298327  71.2098265
  18.6936139  11.6230861  70.5638059  18.8316687  11.2151248  72.0151461
  16.9901923  15.0761501  61.8984124  17.9019779  15.3088887  61.7231822
  16.4811570  15.6598545  61.3359203   9.7987351  17.3556988  76.9373255
  10.5402035  17.8942032  76.6608079   9.0924336  17.9823277  77.0944807
  15.2742690  19.4986128  75.5345417  15.6826046  19.0568539  74.7900049
  14.5519952  18.9238756  75.7879609  11.6273760  14.4358735  72.9078974
  12.4734955  14.8598149  73.0513623  11.5672398  13.7792359  73.6017537
  15.5971505  20.0587319  69.2897705  14.9680367  20.2233033  68.5873773
  15.2097167  20.4728929  70.0608669  19.4760737  20.9941757  66.6442069
  18.7911775  21.3740658  66.0939103  19.5604586  21.6037083  67.3774017
  14.7773206  12.0963103  74.5660147  14.5334137  12.8505164  74.0294423
  15.0533136  12.4748451  75.4007394  16.7311668  18.6401716  73.2437413
  16.9428564  19.2833476  72.5671794  16.6841417  17.8064032  72.7759343
  14.3337897  11.2519537  70.1473985  13.4722376  11.5500790  70.4390722
  14.3600332  11.4689935  69.2155018  11.1499467  19.7961727  66.5547791
  11.6137812  20.0749430  65.7652413  10.8856265  18.8945172  66.3720881
   8.0423548  19.3433209  69.4927554   8.6124905  19.7720477  68.8545038
   8.6331660  19.0615793  70.1911739  10.0868353  15.9184879  63.3637356
  10.7892396  16.3705923  63.8311282   9.7548981  15.2768698  63.9917249
   8.5348714  14.5096636  77.7388565   7.9047375  15.1912917  77.9723962
   8.4284802  14.3979718  76.7941703  17.8457496  21.5173671  71.4159770
  18.6674940  21.1153859  71.1342452  17.8419899  21.4141905  72.3675886
   5.7808432  14.5413011  65.6237966   4.9839595  14.6531706  66.1421462
   5.5534024  14.8799664  64.7578856  11.6114100  21.0657715  73.5720481
  11.6758532  21.5278122  74.4078652  10.9025024  20.4355079  73.7002790
  25.9363489  17.8612420  67.7644742  25.1827198  17.2919818  67.6088746
  26.0711031  17.8275084  68.7115376  11.3262117  22.7325822  63.4399461
  11.1907792  23.5777358  63.8684309  11.8671930  22.9345100  62.6765395
   4.7791515  20.2501260  64.0127386   5.2916035  21.0444510  64.1632951
   5.4314228  19.5527551  63.9460987   6.5886400  23.3667016  66.0950139
   6.7653028  24.2884981  65.9071123   7.3843233  23.0525436  66.5244519
  10.7297418  10.2275281  77.6934073  11.4707131  10.8282434  77.6138535
  10.9615341   9.4852919  77.1352115   5.8738756  15.4131648  75.9712302
   5.7592271  14.5116906  76.2719401   5.0183274  15.6595345  75.6197119
  12.9530594  23.3549389  77.5699803  12.5094448  22.5685767  77.2520707
  13.6147807  23.5428539  76.9043694   7.7117715  24.8845190  72.0960482
   8.2625140  24.7562254  71.3237475   6.8729191  25.1840079  71.7455374
  15.0511832  23.6352189  75.5981204  15.0330307  24.4561070  75.1061473
  15.9731752  23.5106264  75.8231345  11.5084886  21.1496318  76.4404713
  12.0413223  20.3884606  76.2104021  10.9798967  20.8569970  77.1828867
   2.7440432  18.5789914  64.7886957   3.5815654  18.9886923  64.5720664
   2.9218699  17.6389357  64.7587150  14.6404864  16.2464995  60.4770789
  14.1251487  17.0169600  60.7159177  14.3682172  15.5730131  61.1003851
  12.2251975  11.0914696  65.5356028  11.3693571  10.7021546  65.3561667
  12.6378927  11.1706657  64.6755813  13.7551121   8.6261039  69.9347588
  13.2515917   8.5891174  69.1215393  14.0481728   9.5353782  69.9944244
  19.6139138  18.9997350  62.4123963  18.8368581  18.6608509  61.9679125
  20.2930619  19.0049973  61.7378928  14.4291167  14.1192087  62.3030571
  14.1241302  14.4338236  63.1540714  15.3821609  14.1973507  62.3457904
  12.8737599  20.2782310  63.9523525  12.3458960  19.5435070  63.6396762
  12.3725101  21.0556987  63.7063493  17.8530445  18.4731331  69.0690571
  17.1954119  19.1630592  69.1570700  18.6570844  18.8627763  69.4124557
  16.6635904  16.8275704  67.1194513  17.1767785  17.4605695  67.6216222
  17.3137127  16.2276899  66.7537873   7.9325913  12.9706438  60.3326021
   7.0963226  13.3081124  60.6535296   7.7930683  12.8355418  59.3953158
  11.0190199  18.0962521  56.9558498  10.1117261  17.8651774  57.1549647
  11.5161231  17.3000140  57.1432479  13.9258278  26.8060028  59.8755184
  13.2519977  27.1091725  60.4840142  14.3124100  27.6089108  59.5260641
  13.1416734  14.3025159  69.3652853  12.2239296  14.5240106  69.2074541
  13.5576878  14.3771470  68.5064561  13.9251782  15.7016575  64.4955533
  14.6723601  16.2137972  64.1862656  14.1943372  15.3800628  65.3559927
  12.1978432  18.1975116  61.4782488  11.2889652  17.9134148  61.5754958
  12.2273516  18.6174194  60.6185795  17.4297700  21.8081705  65.2473655
  16.9760027  20.9672615  65.3038846  16.7991666  22.4443103  65.5848435
  16.3730619  12.7373691  66.4774323  15.6353376  12.2251077  66.8084565
  16.6257393  12.2974073  65.6657600  15.8730639  23.6458202  66.1823473
  16.1653613  24.2063259  65.4635839  16.3829260  23.9386763  66.9376633
   2.7666603  15.9180630  65.4597690   2.5691003  15.3249990  64.7348757
   2.2113267  15.6132840  66.1773629  10.7463326  15.8103736  67.5792283
  10.8011936  14.8577573  67.5034760   9.9354528  15.9663175  68.0633582
  11.8954520  19.7383859  58.8170566  11.4573950  19.0219718  58.3576204
  12.6364961  19.9659974  58.2555658   8.6855686  14.4280796  65.3382662
   7.8723552  14.7274967  65.7447854   9.1814680  14.0336485  66.0557144
  10.8364264  24.4238553  67.2716927  10.7940443  24.6499399  66.3425459
  11.7526963  24.1901927  67.4202728  14.2829898  14.8922620  74.1697556
  14.6379286  15.1194094  75.0292022  14.9302029  15.2240997  73.5474811
  20.0127635  18.0141056  64.8746885  19.8745534  18.2042652  63.9468074
  19.6563854  18.7760439  65.3314936  20.0397015  20.0817583  69.8858156
  20.4733521  19.9892872  70.7341210  20.7528595  20.0575084  69.2478172
   8.9530065  21.3001582  67.0678889   9.7470663  20.8051902  66.8661464
   8.2421757  20.7719445  66.7046595  13.7724909  23.6819677  71.4191257
  13.8261932  24.2510614  72.1868973  12.9039691  23.8521562  71.0545294
   5.2612828  15.4444664  63.1438642   4.3310417  15.3829119  63.3608604
   5.3570300  14.9220616  62.3475283   6.6523303  13.3837234  72.9015708
   7.3246356  13.1754596  72.2528357   5.8253089  13.1859320  72.4620941
  20.9012564  20.1241284  72.4191042  21.0948454  21.0287094  72.6650317
  20.8013182  19.6648703  73.2529627  12.5548875  10.0099175  74.9181369
  11.9076790  10.7089124  74.8245846  13.3249890  10.4435318  75.2857617
  15.9627673  20.2748027  77.9931922  15.8113179  20.0458578  77.0762006
  15.9532352  21.2318628  78.0063267  12.7313009  17.8479939  72.9778189
  13.6605069  17.9991099  72.8047156  12.3104039  17.9363960  72.1226835
  11.5301341  21.8730604  70.7476726  11.3912427  21.5049388  71.6202665
  10.7415937  22.3878243  70.5760684  12.1249493  26.9739700  62.0902263
  12.3001249  26.5027744  62.9047886  11.4382281  27.6005467  62.3183524
  13.0806556  21.2512207  68.1365564  12.7456389  21.2112977  69.0323214
  12.5810502  20.5856922  67.6635975   7.0550800  16.6579837  73.6618145
   6.9170598  15.9260075  74.2629684   7.9655724  16.5688737  73.3802333
  16.0165748  18.5968241  58.4102624  15.3994918  17.8715069  58.3135677
  15.5482236  19.3577601  58.0669698   9.6833101  16.3699796  73.1501825
  10.3932719  15.7292988  73.1088444   9.6402409  16.6212691  74.0728006
  17.6719879  23.3067149  76.0708404  17.6132426  22.6226369  75.4038987
  18.0739398  24.0486139  75.6189030   8.3962035  13.3565014  74.9697465
   7.8599392  12.9055752  75.6219061   7.8078743  13.4910923  74.2267929
   6.6910578  30.1229063  68.8642123   6.9307176  30.7547587  69.5421142
   5.8479775  29.7717103  69.1507482   7.8064294  12.8153665  57.5323928
   6.9293760  12.6942466  57.1686175   8.2822047  12.0239744  57.2802817
  17.6737287  21.2706733  74.3022384  16.7864065  20.9332655  74.4248783
  18.2435838  20.5389764  74.5391149  11.2038440  25.9308186  71.2683627
  11.1308612  26.7363157  71.7802932  10.7615833  26.1300151  70.4431649
  10.9928220  25.1679956  64.7786449  10.2095742  25.7101636  64.8724673
  11.6920965  25.6853935  65.1780690  14.3024870  10.9774585  67.4220654
  14.7993569  10.2244547  67.1021724  13.5311851  11.0138902  66.8563863
  22.1554627  16.6814951  69.0638946  22.1444503  17.5639666  68.6932879
  21.2872007  16.3286501  68.8693483  13.6637124  25.8295020  73.4241786
  14.3765096  26.4642484  73.3517687  13.1727152  25.9258886  72.6081788
  15.3854651  19.7346272  64.9959078  14.4510929  19.8547735  64.8263782
  15.5631319  18.8318739  64.7319087  10.8859839  13.1191968  67.1492339
  10.5157626  12.5663008  67.8373244  11.3818931  12.5150102  66.5967339
  18.7727202  15.5763592  65.5309112  19.2387654  16.4091583  65.4569414
  19.2234702  15.1108573  66.2354370   8.7149037  23.5789463  74.2447357
   9.4158497  24.2125946  74.3976751   8.2444152  23.9204195  73.4842996
  16.8403433  21.9207413  62.5295264  17.1163277  21.8064007  63.4389138
  15.9707932  21.5224898  62.4907437  16.7443865   7.9444179  69.5700013
  15.8306944   8.1748405  69.7382220  17.1736966   8.0282623  70.4214045
  16.5150323  16.1334070  72.0699907  15.8621773  16.3809978  71.4152360
  16.8930703  15.3198209  71.7362384  13.4757497  26.1693764  66.1728077
  13.6579892  25.3515420  66.6355830  14.2990483  26.3861456  65.7352967
  13.8099662  25.0961949  63.4343126  14.3387429  24.5854403  62.8213288
  14.0727882  24.7804479  64.2988659  12.5637896  16.8753882  78.5565944
  11.8878533  16.7748011  79.2268319  13.3865530  16.7193095  79.0201941
   4.3116755  23.1125818  71.1778459   4.8970192  22.3669506  71.3106364
   4.1141594  23.4229775  72.0615123   7.1655410  26.1477065  66.1940902
   6.4965786  26.6323193  65.7104942   7.0268280  26.3946286  67.1084280
  11.3060679  28.1820809  72.7923560  11.8578987  28.3452431  73.5572645
  11.6466872  28.7725247  72.1203585  16.1571553  23.0082067  78.6472215
  16.7011457  23.6212025  78.1527169  15.5758398  23.5661645  79.1639228
  14.4429066  26.1302785  69.7787242  14.3180206  25.3292524  69.2698188
  15.1008157  26.6248978  69.2901212  16.5063975  23.9311805  71.4066792
  15.5594310  23.8117156  71.3345119  16.8546748  23.0434303  71.4893054
  13.5110408  23.7264521  67.6071145  13.3635370  22.7981228  67.7878715
  14.3363901  23.7484612  67.1228220   7.3772652  12.3782588  63.4651637
   7.7168725  12.9068509  62.7430245   7.8244773  12.7162994  64.2410203
  17.1144530  24.5493080  68.6936017  18.0391077  24.3435941  68.5560468
  16.9459833  24.3009481  69.6025359   9.3640799  10.8757210  61.6644929
  10.0849162  11.2538462  61.1608646   8.7406104  11.5946086  61.7679907
  13.5071922  11.5802358  62.6003262  13.7235537  12.4626996  62.2992090
  13.0265989  11.1888572  61.8708904   8.2471144  14.5388072  69.1774006
   8.1015724  14.8528375  70.0698288   7.7696347  15.1572972  68.6244905
  10.1067527  11.5290620  69.2254896  10.0929095  10.6331713  68.8887194
  10.8239955  11.5361283  69.8593182  11.9593657  11.9627960  71.2708023
  11.7011435  12.8845031  71.2692354  11.4278698  11.5658394  71.9608488
  16.9039846  25.0678747  64.0498109  17.0776724  24.5025169  63.2971961
  17.3968737  25.8679642  63.8677599   2.7216806  17.0793416  72.1161668
   2.1770274  17.8553224  72.2481942   3.5996156  17.4264221  71.9580789
  22.7579237  17.8315170  65.6688409  23.2010383  17.0822495  65.2707532
  21.8805747  17.8225306  65.2862140  17.8915019  24.3845511  61.1495007
  18.5865923  25.0052204  61.3682322  18.2338169  23.5340863  61.4247385
   3.5082828  16.2063312  75.0091824   2.7664564  16.3545948  75.5956455
   3.1875572  16.4671578  74.1458574  19.7906442  21.8345217  62.6782338
  20.3157766  22.1732490  61.9531658  19.7028794  20.8992232  62.4945472
  11.4526490  25.7479291  74.8072214  11.7613617  25.5028437  75.6794914
  12.2501972  25.9525929  74.3191085  11.4747102  27.9017200  67.0377591
  11.0352093  27.4093579  67.7310448  12.2255219  27.3590168  66.7969666
   3.9539441  24.0928741  67.0402219   4.7797461  23.7932513  66.6600863
   3.6033493  23.3236364  67.4892008   8.9220975  23.4455209  69.1099893
   8.3000984  22.7825914  68.8102121   9.5925841  23.4716341  68.4273540
   2.1548046  22.0115068  67.9991153   1.3179955  21.5837242  67.8175154
   2.1271692  22.2047511  68.9361944  19.4800348  22.4678121  77.9833536
  18.6895891  22.4502259  77.4438035  19.2433702  23.0066414  78.7382572
  19.5998223  19.3170587  75.2966264  19.6496228  19.1520594  76.2381787
  19.4912146  18.4497846  74.9064145   8.4834481  21.9959133  62.5858353
   8.6322602  22.6794597  61.9325026   9.2900925  21.9764223  63.1007809
  16.8901985  15.3001515  76.6125571  17.7911848  15.1607980  76.3209569
  16.9649960  15.4655970  77.5523748  11.2244790  12.6768370  75.4578757
  10.3548100  12.9701936  75.1861346  11.4604271  13.2608815  76.1786021
  21.1016420  21.7367528  75.5408286  20.8101228  22.0997509  76.3771747
  20.4888551  21.0234537  75.3621618  22.3012102  19.3020408  68.0610856
  23.1358993  19.7410212  68.2248416  22.4371231  18.8259061  67.2419102
  19.3503608  16.8600143  74.0088344  19.8257729  17.0527789  73.2007195
  18.4269173  16.9159329  73.7631728   6.2387114  18.0224310  63.5919422
   5.9933156  17.1186640  63.7899632   6.4083029  18.0241461  62.6498900
  13.9283824   8.8947987  72.9744178  14.4465768   9.6309014  72.6490666
  13.5738957   9.2011980  73.8090937  11.9829887  24.4907263  60.0570101
  11.4103854  25.1097450  59.6040572  12.5562681  25.0406625  60.5910023
  18.0505277  13.7365903  72.2416649  19.0022700  13.8364001  72.2628873
  17.8808727  12.9444172  72.7514734  16.0719656  10.8221486  72.4276050
  15.4769588  11.1026499  71.7322539  15.7869353  11.3115387  73.1992791
  15.2027147  24.7744413  61.1878683  16.1357820  24.7089975  61.3911558
  15.1150360  25.6100680  60.7293216  17.8315163  24.0910284  58.1482630
  17.7528795  23.7570147  59.0418388  18.6524830  24.5832051  58.1474103
  20.5293355  16.9572023  71.3558949  20.4969675  16.0188024  71.5418633
  21.1393978  17.0356060  70.6224774  12.3676685  15.8268076  57.3986153
  13.3135790  15.6974284  57.4674571  11.9890930  15.0882738  57.8755581
  20.6787843  13.7483066  71.4017232  20.1626892  12.9641523  71.2147161
  21.5627792  13.4201783  71.5663752  18.3398570   7.4924082  67.3613045
  18.1423391   7.1839170  68.2456377  18.9498276   8.2185721  67.4910975
  26.3469904  18.0188030  70.4964986  27.0773293  17.7573318  71.0572689
  25.7376850  17.2816752  70.5367054  24.4285202  16.1595892  71.0939437
  23.7018365  16.0251857  70.4855929  24.0132488  16.4672721  71.8996155
  12.2515378  19.8785822  78.8586810  13.1718387  20.0564421  79.0526857
  12.2164961  18.9341867  78.7066509  10.5519603  13.7518052  57.3341038
   9.6451058  13.4551165  57.4103752  10.8295584  13.4547870  56.4675325
   5.2477451  17.7886857  71.5009591   5.4663460  18.7203964  71.5197625
   5.6603224  17.4294831  72.2864395   1.3385803  18.6927327  69.7533206
   0.6449274  18.2781280  69.2403161   2.0858794  18.7347864  69.1566625
  17.4751024   9.4833514  64.6188241  16.8949693  10.1418318  64.2366293
  17.2086956   8.6610859  64.2075658  15.9254590   8.8838572  66.8209561
  16.4254368   8.9955106  66.0123880  16.5690198   8.5799624  67.4610369
   9.9836586  16.7917201  79.7077402   9.5003668  17.5917561  79.9141291
  10.0697525  16.8025146  78.7544846   3.2522546  18.6245581  67.6299221
   3.2293234  18.7233268  66.6781104   3.5623182  19.4710732  67.9516387
   5.9109923  20.6821736  71.7445836   6.8653177  20.6505678  71.6775767
   5.7122447  20.2212360  72.5596062   6.5009306  19.2522852  74.3116633
   7.3202195  19.7466931  74.3351471   6.7746113  18.3354820  74.2834201
  16.2575902  11.6433604  63.6744589  15.3701757  11.9283255  63.4564784
  16.6729891  11.4827368  62.8271866  19.6090438  11.6680125  67.3898928
  20.3850828  12.1576578  67.6623545  18.8838572  12.0938179  67.8470798
  22.0462996  12.3807745  68.4472869  22.6407487  12.1403480  67.7366177
  22.1189580  11.6614875  69.0746405   4.2660152  26.2241355  68.7616034
   4.1314620  25.4641756  68.1954032   3.8492214  26.9482255  68.2944822
  15.4019115  21.4078279  57.7692609  16.1054965  21.6128281  58.3850264
  14.6781764  21.9755041  58.0341692  16.2316925  17.1588140  63.8894879
  16.1752127  17.6156692  63.0502511  16.7845268  16.3978825  63.7117722
  20.0421731  12.9477872  64.7144998  19.7858666  12.5474508  65.5453206
  19.4174599  13.6621666  64.5895138  24.3534069  15.6873945  67.2216290
  23.7933627  15.7567135  67.9947852  23.7477573  15.5114930  66.5015786
   7.4229278  27.1210672  68.9734476   7.3061662  28.0656105  68.8713166
   6.6021724  26.8184234  69.3620275  17.3105813  21.8460808  59.8191069
  18.1451417  21.4142007  59.6368544  17.1490156  21.6742822  60.7467963
  16.9651705  18.3492921  61.1847408  16.9100509  18.1837193  60.2435852
  16.3397760  19.0568954  61.3409598  14.2797612  20.6541833  80.5100971
  15.1488772  20.8282486  80.1487606  13.8004363  21.4736250  80.3876700
   8.4483792  27.7738934  72.1890405   9.3511039  27.8062545  72.5056900
   8.2221162  26.8439385  72.2036740  10.2037394  26.5269921  68.8500483
   9.2533025  26.5271783  68.7364855  10.5069880  25.7802655  68.3336518
  25.9390088  32.3630459  69.9146246  26.5768498  32.2437207  69.2109586
  25.8210931  33.3111303  69.9734198  22.7479794  32.3157887  69.8507770
  22.4098305  32.1998952  68.9628305  23.6169562  31.9149052  69.8308776
  18.6066610  34.1693364  65.8404661  18.0431475  34.0783301  65.0720949
  18.4919005  33.3493268  66.3207154  23.2299577  33.4692739  75.8093976
  23.2188218  33.0745537  74.9374479  23.3920216  32.7358812  76.4027747
  16.1531042  35.6644555  68.6788882  16.9452334  35.3235380  68.2635181
  16.3927692  35.7739530  69.5991035  24.1866168  37.8364332  61.1519126
  23.5354148  38.4218412  60.7653140  24.9810531  38.3670526  61.2114164
  18.1121796  34.9253469  61.5506260  18.8852672  34.3782456  61.4119136
  18.4647194  35.7897718  61.7620722  19.9506838  36.2529851  74.7573160
  19.6596704  37.1575482  74.6419826  20.5863822  36.2946379  75.4717229
  20.8763045  33.6306699  71.3474519  21.4726617  33.4062722  70.6331482
  20.9338016  32.8891445  71.9499967  20.4488073  31.0846135  59.1824710
  20.7013594  30.5627656  58.4208173  19.5112632  30.9212280  59.2851394
  25.4931356  30.0881913  66.9899454  26.2794445  29.6701336  66.6389871
  25.7570061  30.9928005  67.1581102  25.6641434  35.5254763  61.6888110
  25.0287267  35.5989390  62.4009015  25.3338840  36.1148362  61.0107190
  30.8939783  30.0257146  67.8932432  31.6264955  29.4556363  68.1270262
  30.1379139  29.6378747  68.3338938  20.1684362  32.9874241  61.3849085
  20.0520620  32.3119144  62.0530170  20.2786622  32.5006615  60.5681238
  22.5115903  32.4484388  65.0895775  22.1474110  31.9215009  65.8008696
  23.3683019  32.0582857  64.9162260  28.4165204  23.7378720  72.3527041
  28.0848528  24.6074131  72.1288256  27.8210817  23.4215004  73.0321071
  22.1521390  27.4774288  60.0857123  22.3195792  28.3454524  60.4527594
  21.9618559  27.6401569  59.1618412  24.9096723  35.9391266  71.7522953
  24.6097446  36.8416305  71.6438761  24.5647783  35.6723450  72.6044106
  18.3609205  32.3905063  67.7859658  17.4359701  32.2581277  67.9937350
  18.6093618  33.1699283  68.2829600  28.3093867  28.4573807  69.4320391
  27.4010744  28.3889215  69.1379152  28.2581463  28.9345752  70.2602216
  22.1310611  29.9331945  61.0703790  22.0110236  30.3788996  61.9089270
  21.4363199  30.2817263  60.5117328  15.7218016  32.0338337  68.6203447
  15.8510397  32.2872816  69.5342859  15.0415467  32.6266045  68.3008102
  19.8917503  42.7035587  64.7193921  19.8141533  43.6543412  64.7982402
  19.2879147  42.3581459  65.3768847  22.3834733  29.8763452  77.3755288
  21.6068067  30.4357372  77.3658153  23.0225296  30.3620235  77.8970158
  30.1755513  26.6590245  71.2098265  29.5329894  26.9522778  70.5638059
  29.6710442  26.5443165  72.0151461  27.8295677  30.4053418  61.8984124
  28.7413533  30.6380805  61.7231822  27.3205324  30.9890462  61.3359203
  20.6381105  32.6848906  76.9373255  21.3795789  33.2233950  76.6608079
  19.9318091  33.3115194  77.0944807  26.1136445  34.8278046  75.5345417
  26.5219801  34.3860457  74.7900049  25.3913706  34.2530674  75.7879609
  22.4667515  29.7650653  72.9078974  23.3128710  30.1890066  73.0513623
  22.4066152  29.1084277  73.6017537  26.4365259  35.3879237  69.2897705
  25.8074122  35.5524951  68.5873773  26.0490921  35.8020846  70.0608669
  30.3154491  36.3233675  66.6442069  29.6305529  36.7032576  66.0939103
  30.3998341  36.9329001  67.3774017  25.6166960  27.4255021  74.5660147
  25.3727892  28.1797082  74.0294423  25.8926891  27.8040369  75.4007394
  27.5705423  33.9693634  73.2437413  27.7822318  34.6125393  72.5671794
  27.5235171  33.1355950  72.7759343  25.1731652  26.5811454  70.1473985
  24.3116131  26.8792708  70.4390722  25.1994086  26.7981853  69.2155018
  21.9893221  35.1253645  66.5547791  22.4531567  35.4041348  65.7652413
  21.7250019  34.2237089  66.3720881  18.8817302  34.6725126  69.4927554
  19.4518659  35.1012395  68.8545038  19.4725414  34.3907711  70.1911739
  20.9262107  31.2476797  63.3637356  21.6286151  31.6997841  63.8311282
  20.5942736  30.6060616  63.9917249  19.3742469  29.8388554  77.7388565
  18.7441129  30.5204835  77.9723962  19.2678557  29.7271635  76.7941703
  14.6687441  29.5060350  68.6654489  13.8786495  29.7617878  68.1894600
  15.1598689  30.3208688  68.7706530  28.6851251  36.8465589  71.4159770
  29.5068695  36.4445776  71.1342452  28.6813654  36.7433823  72.3675886
  16.6202187  29.8704929  65.6237966  15.8233350  29.9823623  66.1421462
  16.3927779  30.2091581  64.7578856  22.4507854  36.3949632  73.5720481
  22.5152287  36.8570039  74.4078652  21.7418778  35.7646997  73.7002790
  12.9525144  29.7590840  71.0969480  13.2033183  30.6437850  71.3627056
  13.4884693  29.5795442  70.3244572  36.7757244  33.1904337  67.7644742
  36.0220952  32.6211736  67.6088746  36.9104785  33.1567002  68.7115376
  22.1655872  38.0617740  63.4399461  22.0301547  38.9069275  63.8684309
  22.7065684  38.2637017  62.6765395  18.6523212  24.1409320  80.1013816
  18.2590157  23.5875518  80.7761460  19.4689352  24.4519898  80.4920334
  15.6185269  35.5793178  64.0127386  16.1309790  36.3736428  64.1632951
  16.2707982  34.8819468  63.9460987  17.4280154  38.6958934  66.0950139
  17.6046782  39.6176899  65.9071123  18.2236988  38.3817353  66.5244519
  21.5691173  25.5567199  77.6934073  22.3100886  26.1574352  77.6138535
  21.8009095  24.8144836  77.1352115  16.7132511  30.7423566  75.9712302
  16.5986026  29.8408823  76.2719401  15.8577028  30.9887263  75.6197119
  23.7924348  38.6841306  77.5699803  23.3488202  37.8977685  77.2520707
  24.4541562  38.8720457  76.9043694  18.5511469  40.2137108  72.0960482
  19.1018895  40.0854171  71.3237475  17.7122945  40.5131997  71.7455374
  25.8905586  38.9644106  75.5981204  25.8724062  39.7852987  75.1061473
  26.8125506  38.8398181  75.8231345  22.3478641  36.4788236  76.4404713
  22.8806977  35.7176524  76.2104021  21.8192722  36.1861887  77.1828867
  25.5148335  21.5848302  71.9698354  25.1712605  22.4749943  71.8937465
  25.8827298  21.3949959  71.1067939  13.5834186  33.9081832  64.7886957
  14.4209408  34.3178840  64.5720664  13.7612454  32.9681274  64.7587150
  25.4798618  31.5756913  60.4770789  24.9645242  32.3461517  60.7159177
  25.2075927  30.9022049  61.1003851  23.0645729  26.4206614  65.5356028
  22.2087326  26.0313464  65.3561667  23.4772681  26.4998574  64.6755813
  24.5944876  23.9552957  69.9347588  24.0909671  23.9183092  69.1215393
  24.8875483  24.8645699  69.9944244  20.8387762  24.0391687  68.9413769
  21.7040759  23.8434495  68.5819659  20.9065271  23.8102038  69.8683126
  30.4532892  34.3289267  62.4123963  29.6762335  33.9900427  61.9679125
  31.1324373  34.3341891  61.7378928  25.2684921  29.4484005  62.3030571
  24.9635057  29.7630154  63.1540714  26.2215363  29.5265425  62.3457904
  23.7131353  35.6074228  63.9523525  23.1852715  34.8726988  63.6396762
  23.2118856  36.3848904  63.7063493  28.6924199  33.8023249  69.0690571
  28.0347874  34.4922510  69.1570700  29.4964598  34.1919681  69.4124557
  18.4450081  26.2693894  66.3130136  19.0193833  26.0469076  65.5803329
  19.0321063  26.3382589  67.0658737  27.5029658  32.1567621  67.1194513
  28.0161540  32.7897613  67.6216222  28.1530882  31.5568817  66.7537873
  18.7719668  28.2998355  60.3326021  17.9356980  28.6373042  60.6535296
  18.6324438  28.1647335  59.3953158  20.7472749  23.1435143  65.0405206
  20.0937161  22.8284161  64.4161820  20.7053223  22.5210884  65.7665029
  21.8583953  33.4254438  56.9558498  20.9511015  33.1943692  57.1549647
  22.3554985  32.6292058  57.1432479  24.7652032  42.1351946  59.8755184
  24.0913731  42.4383642  60.4840142  25.1517854  42.9381026  59.5260641
  23.9810489  29.6317077  69.3652853  23.0633050  29.8532024  69.2074541
  24.3970633  29.7063387  68.5064561  24.7645537  31.0308493  64.4955533
  25.5117356  31.5429890  64.1862656  25.0337126  30.7092545  65.3559927
  23.0372187  33.5267033  61.4782488  22.1283406  33.2426066  61.5754958
  23.0667271  33.9466112  60.6185795  28.2691454  37.1373623  65.2473655
  27.8153781  36.2964533  65.3038846  27.6385421  37.7735021  65.5848435
  27.2124374  28.0665609  66.4774323  26.4747131  27.5542995  66.8084565
  27.4651147  27.6265990  65.6657600  26.7124393  38.9750119  66.1823473
  27.0047368  39.5355177  65.4635839  27.2223014  39.2678680  66.9376633
  27.3136001  20.8441861  67.0716092  27.6194878  19.9839224  66.7842007
  28.0388606  21.4359481  66.8715086  13.6060357  31.2472547  65.4597690
  13.4084757  30.6541908  64.7348757  13.0507021  30.9424758  66.1773629
  21.5857081  31.1395654  67.5792283  21.6405691  30.1869490  67.5034760
  20.7748283  31.2955093  68.0633582  22.7348275  35.0675777  58.8170566
  22.2967705  34.3511636  58.3576204  23.4758716  35.2951892  58.2555658
  19.5249441  29.7572714  65.3382662  18.7117306  30.0566884  65.7447854
  20.0208435  29.3628402  66.0557144  21.6758019  39.7530471  67.2716927
  21.6334197  39.9791317  66.3425459  22.5920718  39.5193845  67.4202728
  25.1223652  30.2214538  74.1697556  25.4773040  30.4486011  75.0292022
  25.7695784  30.5532915  73.5474811  30.8521389  33.3432974  64.8746885
  30.7139288  33.5334570  63.9468074  30.4957608  34.1052357  65.3314936
  19.0163516  27.3291069  70.9543897  19.6562895  27.1879828  70.2566860
  18.1841046  27.0425583  70.5782499  30.8790769  35.4109501  69.8858156
  31.3127276  35.3184790  70.7341210  31.5922350  35.3867001  69.2478172
  19.7923819  36.6293500  67.0678889  20.5864418  36.1343820  66.8661464
  19.0815512  36.1011363  66.7046595  24.6118664  39.0111595  71.4191257
  24.6655686  39.5802531  72.1868973  23.7433445  39.1813480  71.0545294
  16.1006583  30.7736581  63.1438642  15.1704171  30.7121037  63.3608604
  16.1964055  30.2512534  62.3475283  16.0192132  27.2991394  65.7316884
  16.2798949  28.2136727  65.6226044  16.8409304  26.8315837  65.8813497
  17.4917057  28.7129151  72.9015708  18.1640111  28.5046513  72.2528357
  16.6646844  28.5151237  72.4620941  31.7406319  35.4533202  72.4191042
  31.9342209  36.3579012  72.6650317  31.6406937  34.9940621  73.2529627
  23.3942629  25.3391092  74.9181369  22.7470544  26.0381042  74.8245846
  24.1643645  25.7727236  75.2857617  26.8021427  35.6039944  77.9931922
  26.6506934  35.3750496  77.0762006  26.7926107  36.5610546  78.0063267
  23.5706764  33.1771857  72.9778189  24.4998824  33.3283017  72.8047156
  23.1497794  33.2655878  72.1226835  22.3695095  37.2022522  70.7476726
  22.2306181  36.8341306  71.6202665  21.5809692  37.7170161  70.5760684
  22.9643247  42.3031618  62.0902263  23.1395003  41.8319661  62.9047886
  22.2776035  42.9297384  62.3183524  23.9200311  36.5804124  68.1365564
  23.5850143  36.5404894  69.0323214  23.4204256  35.9148840  67.6635975
  17.8944555  31.9871754  73.6618145  17.7564353  31.2551993  74.2629684
  18.8049478  31.8980654  73.3802333  26.8559502  33.9260159  58.4102624
  26.2388673  33.2006987  58.3135677  26.3875991  34.6869519  58.0669698
  20.5226855  31.6991714  73.1501825  21.2326474  31.0584906  73.1088444
  20.4796163  31.9504608  74.0728006  28.5113634  38.6359067  76.0708404
  28.4526180  37.9518287  75.4038987  28.9133152  39.3778057  75.6189030
  19.2355789  28.6856931  74.9697465  18.6993146  28.2347670  75.6219061
  18.6472498  28.8202840  74.2267929  17.5304333  45.4520981  68.8642123
  17.7700931  46.0839505  69.5421142  16.6873529  45.1009021  69.1507482
  18.6458048  28.1445583  57.5323928  17.7687514  28.0234384  57.1686175
  19.1215801  27.3531661  57.2802817  28.5131041  36.5998651  74.3022384
  27.6257820  36.2624573  74.4248783  29.0829592  35.8681682  74.5391149
  10.1660188  32.9322743  67.6265435  10.8531228  32.6184473  67.0386451
  10.0108317  33.8364107  67.3532687  14.9694910  27.8212939  72.0550459
  14.8853099  27.2138609  71.3200869  14.1477617  28.3121957  72.0559955
  22.0432195  41.2600103  71.2683627  21.9702366  42.0655075  71.7802932
  21.6009588  41.4592069  70.4431649  21.8321974  40.4971873  64.7786449
  21.0489496  41.0393553  64.8724673  22.5314719  41.0145853  65.1780690
  25.1418624  26.3066503  67.4220654  25.6387324  25.5536465  67.1021724
  24.3705606  26.3430819  66.8563863  32.9948382  32.0106868  69.0638946
  32.9838258  32.8931584  68.6932879  32.1265761  31.6578419  68.8693483
  24.5030878  41.1586937  73.4241786  25.2158850  41.7934402  73.3517687
  24.0120907  41.2550803  72.6081788  26.2248405  35.0638190  64.9959078
  25.2904684  35.1839652  64.8263782  26.4025073  34.1610657  64.7319087
  21.7253593  28.4483886  67.1492339  21.3551381  27.8954926  67.8373244
  22.2212686  27.8442019  66.5967339  29.6120956  30.9055509  65.5309112
  30.0781409  31.7383501  65.4569414  30.0628457  30.4400491  66.2354370
  19.5542792  38.9081381  74.2447357  20.2552251  39.5417864  74.3976751
  19.0837907  39.2496112  73.4842996  27.6797187  37.2499331  62.5295264
  27.9557031  37.1355925  63.4389138  26.8101686  36.8516815  62.4907437
  27.5837619  23.2736096  69.5700013  26.6700699  23.5040323  69.7382220
  28.0130721  23.3574540  70.4214045  27.3544078  31.4625988  72.0699907
  26.7015528  31.7101896  71.4152360  27.7324457  30.6490126  71.7362384
  24.3151251  41.4985681  66.1728077  24.4973646  40.6807337  66.6355830
  25.1384237  41.7153374  65.7352967  24.6493417  40.4253866  63.4343126
  25.1781183  39.9146321  62.8213288  24.9121637  40.1096397  64.2988659
  23.4031651  32.2045799  78.5565944  22.7272288  32.1039929  79.2268319
  24.2259285  32.0485013  79.0201941  15.1510510  38.4417736  71.1778459
  15.7363947  37.6961424  71.3106364  14.9535348  38.7521692  72.0615123
  18.0049165  41.4768983  66.1940902  17.3359540  41.9615111  65.7104942
  17.8662035  41.7238204  67.1084280   9.7428164  31.0123336  69.8982902
   9.7812264  30.4786927  70.6920021   9.2368457  30.4858541  69.2793880
  22.1454434  43.5112727  72.7923560  22.6972742  43.6744348  73.5572645
  22.4860627  44.1017165  72.1203585  17.1218927  25.8587876  73.3945445
  17.1860253  26.7202707  72.9822842  17.0586047  25.2461878  72.6617803
  16.5971199  27.9311009  77.0418479  17.2243238  27.5488086  77.6556003
  15.7399118  27.7125211  77.4074172  26.9965308  38.3373984  78.6472215
  27.5405212  38.9503942  78.1527169  26.4152153  38.8953563  79.1639228
  13.3736742  29.7387438  62.9736834  13.6690183  28.8298117  62.9203888
  12.4724778  29.7175178  62.6517836  25.2822821  41.4594702  69.7787242
  25.1573960  40.6584442  69.2698188  25.9401912  41.9540896  69.2901212
  16.9030989  27.8143435  68.9564382  16.1817575  28.4279402  68.8171856
  17.6924245  28.3501200  68.8781028  27.3457729  39.2603722  71.4066792
  26.3988065  39.1409073  71.3345119  27.6940502  38.3726220  71.4893054
  19.7057303  25.1497861  75.2305034  20.2291704  25.3960158  75.9931344
  19.4869636  25.9817896  74.8108172  15.1024584  27.4201536  63.0976159
  14.7737290  26.5398915  62.9151265  15.4563954  27.3649204  63.9852548
  24.3504162  39.0556439  67.6071145  24.2029125  38.1273146  67.7878715
  25.1757656  39.0776529  67.1228220  18.2166407  27.7074506  63.4651637
  18.5562479  28.2360427  62.7430245  18.6638527  28.0454912  64.2410203
  27.9538284  39.8784997  68.6936017  28.8784832  39.6727859  68.5560468
  27.7853588  39.6301398  69.6025359  20.9109848  26.0911556  72.9154705
  20.5706668  25.2919369  73.3175385  20.2048854  26.3913267  72.3431538
  21.5626319  23.1760869  71.3682028  22.3852389  22.7021347  71.2460918
  21.8064383  23.9551352  71.8680714  20.2034554  26.2049127  61.6644929
  20.9242916  26.5830380  61.1608646  19.5799858  26.9238004  61.7679907
  24.3465677  26.9094276  62.6003262  24.5629291  27.7918914  62.2992090
  23.8659744  26.5180490  61.8708904  19.0864898  29.8679989  69.1774006
  18.9409479  30.1820292  70.0698288  18.6090102  30.4864890  68.6244905
  20.9461281  26.8582537  69.2254896  20.9322850  25.9623631  68.8887194
  21.6633709  26.8653201  69.8593182  22.7987412  27.2919878  71.2708023
  22.5405190  28.2136948  71.2692354  22.2672452  26.8950312  71.9608488
  27.7433601  40.3970665  64.0498109  27.9170478  39.8317087  63.2971961
  28.2362492  41.1971560  63.8677599  13.5610560  32.4085334  72.1161668
  13.0164028  33.1845142  72.2481942  14.4389910  32.7556138  71.9580789
  20.3498177  25.7396918  64.4942466  20.4714088  24.8113564  64.6933354
  20.0600219  25.7535604  63.5820782  23.2189367  23.4251828  67.6309186
  23.2411064  23.4891161  66.6761165  23.6357426  22.5856337  67.8249692
  33.5972992  33.1607088  65.6688409  34.0404138  32.4114413  65.2707532
  32.7199502  33.1517224  65.2862140  28.7308773  39.7137429  61.1495007
  29.4259678  40.3344122  61.3682322  29.0731923  38.8632780  61.4247385
  14.3476582  31.5355230  75.0091824  13.6058318  31.6837865  75.5956455
  14.0269326  31.7963496  74.1458574  30.6300196  37.1637135  62.6782338
  31.1551520  37.5024407  61.9531658  30.5422549  36.2284150  62.4945472
  22.2920245  41.0771208  74.8072214  22.6007371  40.8320355  75.6794914
  23.0895727  41.2817847  74.3191085  22.3140857  43.2309118  67.0377591
  21.8745847  42.7385497  67.7310448  23.0648974  42.6882086  66.7969666
  14.7933196  39.4220659  67.0402219  15.6191216  39.1224431  66.6600863
  14.4427248  38.6528281  67.4892008  19.7614729  38.7747127  69.1099893
  19.1394738  38.1117832  68.8102121  20.4319596  38.8008259  68.4273540
  12.9941801  37.3406985  67.9991153  12.1573709  36.9129160  67.8175154
  12.9665446  37.5339429  68.9361944  19.8339257  27.2528915  78.7032399
  19.8827412  28.1291038  78.3210168  20.3761771  26.7106308  78.1304042
  30.3194102  37.7970038  77.9833536  29.5289646  37.7794177  77.4438035
  30.0827457  38.3358332  78.7382572  30.4391977  34.6462505  75.2966264
  30.4889982  34.4812512  76.2381787  30.3305901  33.7789764  74.9064145
  19.3228236  37.3251050  62.5858353  19.4716356  38.0086515  61.9325026
  20.1294679  37.3056140  63.1007809  27.7295740  30.6293433  76.6125571
  28.6305602  30.4899898  76.3209569  27.8043714  30.7947888  77.5523748
  22.0638545  28.0060287  75.4578757  21.1941854  28.2993853  75.1861346
  22.2998025  28.5900732  76.1786021  31.9410174  37.0659446  75.5408286
  31.6494982  37.4289427  76.3771747  31.3282305  36.3526454  75.3621618
  33.1405856  34.6312326  68.0610856  33.9752748  35.0702130  68.2248416
  33.2764985  34.1550979  67.2419102  30.1897362  32.1892061  74.0088344
  30.6651484  32.3819707  73.2007195  29.2662928  32.2451247  73.7631728
  17.0780869  33.3516228  63.5919422  16.8326911  32.4478558  63.7899632
  17.2476783  33.3533378  62.6498900  24.7677579  24.2239904  72.9744178
  25.2859523  24.9600931  72.6490666  24.4132712  24.5303898  73.8090937
  16.3476516  29.0844586  61.0905584  15.6545761  29.1588941  60.4345620
  16.1028268  28.3204929  61.6127101  25.0190173  20.6440187  68.4945074
  25.2991927  19.9763376  69.1205501  25.8040780  20.8369282  67.9819738
  22.8223641  39.8199181  60.0570101  22.2497609  40.4389368  59.6040572
  23.3956435  40.3698542  60.5910023  28.8899031  29.0657821  72.2416649
  29.8416454  29.1655919  72.2628873  28.7202482  28.2736089  72.7514734
  26.9113411  26.1513404  72.4276050  26.3163343  26.4318417  71.7322539
  26.6263107  26.6407305  73.1992791  26.0420901  40.1036331  61.1878683
  26.9751574  40.0381893  61.3911558  25.9544114  40.9392598  60.7293216
  28.6708918  39.4202201  58.1482630  28.5922549  39.0862065  59.0418388
  29.4918585  39.9123969  58.1474103  31.3687109  32.2863941  71.3558949
  31.3363429  31.3479941  71.5418633  31.9787733  32.3647977  70.6224774
  23.2070440  31.1559994  57.3986153  24.1529545  31.0266202  57.4674571
  22.8284685  30.4174655  57.8755581  31.5181598  29.0774984  71.4017232
  31.0020646  28.2933441  71.2147161  32.4021546  28.7493701  71.5663752
  29.1792324  22.8216000  67.3613045  28.9817146  22.5131088  68.2456377
  29.7892030  23.5477638  67.4910975  37.1863659  33.3479947  70.4964986
  37.9167047  33.0865236  71.0572689  36.5770604  32.6108669  70.5367054
  35.2678956  31.4887810  71.0939437  34.5412120  31.3543775  70.4855929
  34.8526243  31.7964639  71.8996155  23.0909132  35.2077740  78.8586810
  24.0112142  35.3856339  79.0526857  23.0558716  34.2633785  78.7066509
  21.3913357  29.0809970  57.3341038  20.4844812  28.7843083  57.4103752
  21.6689338  28.7839788  56.4675325  12.3091297  30.4016333  67.7840085
  11.9894082  29.5481642  67.4914459  11.7624726  30.6164911  68.5398052
  16.0871205  33.1178774  71.5009591  16.3057215  34.0495882  71.5197625
  16.4996979  32.7586749  72.2864395  23.0075423  23.6246860  63.4885280
  22.1976151  23.2793945  63.8640526  23.6959840  23.3154403  64.0772891
  24.9365971  22.7024906  65.1109576  25.4897010  23.1220360  65.7699599
  25.1736057  21.7760655  65.1532532  20.9599070  28.6911980  80.8912340
  20.8595797  29.6406337  80.8224431  20.7420612  28.3630219  80.0188410
  20.1612142  25.9396905  57.4753018  21.0231306  26.2651803  57.7348835
  20.3462486  25.1528401  56.9626083  12.1779557  34.0219245  69.7533206
  11.4843029  33.6073198  69.2403161  12.9252548  34.0639781  69.1566625
  28.3144778  24.8125432  64.6188241  27.7343447  25.4710236  64.2366293
  28.0480711  23.9902776  64.2075658  26.7648345  24.2130489  66.8209561
  27.2648123  24.3247024  66.0123880  27.4083952  23.9091542  67.4610369
  20.8230340  32.1209119  79.7077402  20.3397422  32.9209479  79.9141291
  20.9091279  32.1317064  78.7544846  14.0916300  33.9537499  67.6299221
  14.0686988  34.0525186  66.6781104  14.4016937  34.8002649  67.9516387
  16.7503678  36.0113654  71.7445836  17.7046931  35.9797596  71.6775767
  16.5516201  35.5504277  72.5596062  17.3403060  34.5814770  74.3116633
  18.1595949  35.0758848  74.3351471  17.6139868  33.6646738  74.2834201
  27.0969656  26.9725522  63.6744589  26.2095511  27.2575173  63.4564784
  27.5123645  26.8119285  62.8271866  30.4484192  26.9972043  67.3898928
  31.2244582  27.4868495  67.6623545  29.7232327  27.4230097  67.8470798
  32.8856751  27.7099662  68.4472869  33.4801242  27.4695398  67.7366177
  32.9583335  26.9906793  69.0746405  15.1053907  41.5533273  68.7616034
  14.9708375  40.7933674  68.1954032  14.6885969  42.2774173  68.2944822
  26.2412870  36.7370197  57.7692609  26.9448720  36.9420199  58.3850264
  25.5175518  37.3046959  58.0341692  27.0710680  32.4880058  63.8894879
  27.0145881  32.9448609  63.0502511  27.6239022  31.7270743  63.7117722
  30.8815486  28.2769790  64.7144998  30.6252420  27.8766425  65.5453206
  30.2568354  28.9913584  64.5895138  35.1927824  31.0165863  67.2216290
  34.6327382  31.0859052  67.9947852  34.5871327  30.8406848  66.5015786
  18.2623033  42.4502590  68.9734476  18.1455417  43.3948023  68.8713166
  17.4415479  42.1476152  69.3620275  28.1499567  37.1752726  59.8191069
  28.9845171  36.7433924  59.6368544  27.9883910  37.0034740  60.7467963
  27.8045459  33.6784839  61.1847408  27.7494263  33.5129111  60.2435852
  27.1791515  34.3860872  61.3409598  12.5937974  28.9152904  75.0108830
  13.2396838  28.4051858  75.4996056  12.3855125  29.6521585  75.5852256
  25.1191366  35.9833751  80.5100971  25.9882526  36.1574403  80.1487606
  24.6398118  36.8028168  80.3876700  21.1141585  23.1792948  60.7632727
  21.1020255  24.1234788  60.9200997  22.0065007  22.9963094  60.4692188
  19.2877547  43.1030852  72.1890405  20.1904793  43.1354462  72.5056900
  19.0614917  42.1731303  72.2036740  21.0431149  41.8561839  68.8500483
  20.0926780  41.8563700  68.7364855  21.3463635  41.1094573  68.3336518
  24.9293704  19.7735725  65.0178663  24.1626100  19.2194212  65.1635346
  25.3404409  19.8457594  65.8792815  16.9335465  26.0620521  79.1083845
  17.7966927  25.7057325  79.3187169  16.3600876  25.7234415  79.7959249
  36.7783842  47.6922377  69.9146246  37.4162252  47.5729124  69.2109586
  36.6604685  48.6403221  69.9734198  33.5873548  47.6449805  69.8507770
  33.2492060  47.5290870  68.9628305  34.4563317  47.2440970  69.8308776
  29.4460364  49.4985281  65.8404661  28.8825229  49.4075218  65.0720949
  29.3312759  48.6785186  66.3207154  34.0693331  48.7984657  75.8093976
  34.0581972  48.4037455  74.9374479  34.2313971  48.0650729  76.4027747
  26.9924796  50.9936473  68.6788882  27.7846088  50.6527298  68.2635181
  27.2321446  51.1031448  69.5991035  28.9515550  50.2545386  61.5506260
  29.7246426  49.7074373  61.4119136  29.3040949  51.1189636  61.7620722
  30.7900593  51.5821769  74.7573160  30.4990459  52.4867399  74.6419826
  31.4257577  51.6238296  75.4717229  31.7156799  48.9598617  71.3474519
  32.3120372  48.7354640  70.6331482  31.7731771  48.2183363  71.9499967
  31.2881828  46.4138052  59.1824710  31.5407349  45.8919574  58.4208173
  30.3506387  46.2504198  59.2851394  31.0078117  48.3166158  61.3849085
  30.8914375  47.6411062  62.0530170  31.1180376  47.8298532  60.5681238
  33.3509658  47.7776306  65.0895775  32.9867865  47.2506926  65.8008696
  34.2076773  47.3874775  64.9162260  39.2558958  39.0670638  72.3527041
  38.9242283  39.9366049  72.1288256  38.6604572  38.7506922  73.0321071
  35.7490478  51.2683184  71.7522953  35.4491201  52.1708223  71.6438761
  35.4041537  51.0015367  72.6044106  29.2002959  47.7196981  67.7859658
  28.2753456  47.5873195  67.9937350  29.4487372  48.4991200  68.2829600
  39.1487621  43.7865724  69.4320391  38.2404499  43.7181133  69.1379152
  39.0975217  44.2637669  70.2602216  26.5611770  47.3630255  68.6203447
  26.6904151  47.6164733  69.5342859  25.8809222  47.9557963  68.3008102
  30.7311257  58.0327504  64.7193921  30.6535287  58.9835330  64.7982402
  30.1272901  57.6873377  65.3768847  33.2228487  45.2055370  77.3755288
  32.4461821  45.7649290  77.3658153  33.8619050  45.6912153  77.8970158
  41.0149268  41.9882163  71.2098265  40.3723648  42.2814696  70.5638059
  40.5104196  41.8735083  72.0151461  31.4774860  48.0140823  76.9373255
  32.2189544  48.5525867  76.6608079  30.7711845  48.6407112  77.0944807
  36.9530199  50.1569964  75.5345417  37.3613555  49.7152374  74.7900049
  36.2307461  49.5822591  75.7879609  33.3061269  45.0942570  72.9078974
  34.1522464  45.5181984  73.0513623  33.2459907  44.4376195  73.6017537
  37.2759014  50.7171154  69.2897705  36.6467876  50.8816868  68.5873773
  36.8884676  51.1312764  70.0608669  36.4560715  42.7546939  74.5660147
  36.2121646  43.5088999  74.0294423  36.7320645  43.1332286  75.4007394
  38.4099177  49.2985551  73.2437413  38.6216073  49.9417311  72.5671794
  38.3628926  48.4647868  72.7759343  36.0125406  41.9103372  70.1473985
  35.1509885  42.2084625  70.4390722  36.0387841  42.1273771  69.2155018
  32.8286976  50.4545562  66.5547791  33.2925321  50.7333265  65.7652413
  32.5643774  49.5529007  66.3720881  29.7211057  50.0017044  69.4927554
  30.2912414  50.4304312  68.8545038  30.3119169  49.7199629  70.1911739
  31.7655862  46.5768715  63.3637356  32.4679905  47.0289758  63.8311282
  31.4336490  45.9352534  63.9917249  30.2136223  45.1680471  77.7388565
  29.5834884  45.8496752  77.9723962  30.1072311  45.0563553  76.7941703
  25.5081196  44.8352267  68.6654489  24.7180250  45.0909796  68.1894600
  25.9992443  45.6500605  68.7706530  39.5245005  52.1757507  71.4159770
  40.3462449  51.7737694  71.1342452  39.5207408  52.0725741  72.3675886
  27.4595941  45.1996847  65.6237966  26.6627104  45.3115541  66.1421462
  27.2321533  45.5383499  64.7578856  33.2901609  51.7241550  73.5720481
  33.3546041  52.1861957  74.4078652  32.5812533  51.0938915  73.7002790
  23.7918899  45.0882758  71.0969480  24.0426937  45.9729768  71.3627056
  24.3278447  44.9087359  70.3244572  29.4916966  39.4701237  80.1013816
  29.0983912  38.9167436  80.7761460  30.3083106  39.7811816  80.4920334
  26.4579024  50.9085095  64.0127386  26.9703544  51.7028346  64.1632951
  27.1101737  50.2111386  63.9460987  28.2673908  54.0250852  66.0950139
  28.4440537  54.9468816  65.9071123  29.0630742  53.7109271  66.5244519
  32.4084927  40.8859116  77.6934073  33.1494640  41.4866269  77.6138535
  32.6402850  40.1436754  77.1352115  27.5526265  46.0715484  75.9712302
  27.4379780  45.1700741  76.2719401  26.6970783  46.3179180  75.6197119
  34.6318103  54.0133224  77.5699803  34.1881957  53.2269602  77.2520707
  35.2935316  54.2012374  76.9043694  29.3905224  55.5429026  72.0960482
  29.9412649  55.4146089  71.3237475  28.5516700  55.8423915  71.7455374
  36.7299341  54.2936024  75.5981204  36.7117816  55.1144905  75.1061473
  37.6519261  54.1690099  75.8231345  33.1872395  51.8080153  76.4404713
  33.7200732  51.0468442  76.2104021  32.6586476  51.5153805  77.1828867
  36.3542090  36.9140219  71.9698354  36.0106359  37.8041861  71.8937465
  36.7221053  36.7241877  71.1067939  24.4227941  49.2373750  64.7886957
  25.2603163  49.6470758  64.5720664  24.6006208  48.2973192  64.7587150
  35.4338630  39.2844874  69.9347588  34.9303426  39.2475010  69.1215393
  35.7269237  40.1937617  69.9944244  31.6781516  39.3683604  68.9413769
  32.5434513  39.1726413  68.5819659  31.7459025  39.1393956  69.8683126
  39.5317954  49.1315166  69.0690571  38.8741628  49.8214428  69.1570700
  40.3358353  49.5211598  69.4124557  29.2843835  41.5985812  66.3130136
  29.8587587  41.3760994  65.5803329  29.8714818  41.6674507  67.0658737
  31.5866503  38.4727061  65.0405206  30.9330915  38.1576078  64.4161820
  31.5446977  37.8502801  65.7665029  34.8204243  44.9608995  69.3652853
  33.9026805  45.1823942  69.2074541  35.2364387  45.0355305  68.5064561
  38.1529756  36.1733778  67.0716092  38.4588632  35.3131142  66.7842007
  38.8782360  36.7651399  66.8715086  24.4454112  46.5764465  65.4597690
  24.2478512  45.9833826  64.7348757  23.8900776  46.2716675  66.1773629
  32.4250835  46.4687572  67.5792283  32.4799445  45.5161408  67.5034760
  31.6142037  46.6247011  68.0633582  32.5151773  55.0822388  67.2716927
  32.4727952  55.3083235  66.3425459  33.4314472  54.8485763  67.4202728
  35.9617407  45.5506456  74.1697556  36.3166795  45.7777929  75.0292022
  36.6089538  45.8824833  73.5474811  29.8557270  42.6582987  70.9543897
  30.4956649  42.5171746  70.2566860  29.0234801  42.3717500  70.5782499
  41.7184524  50.7401419  69.8858156  42.1521030  50.6476708  70.7341210
  42.4316104  50.7158919  69.2478172  30.6317574  51.9585417  67.0678889
  31.4258172  51.4635737  66.8661464  29.9209266  51.4303280  66.7046595
  35.4512418  54.3403513  71.4191257  35.5049441  54.9094449  72.1868973
  34.5827200  54.5105398  71.0545294  26.9400337  46.1028499  63.1438642
  26.0097926  46.0412954  63.3608604  27.0357809  45.5804452  62.3475283
  26.8585886  42.6283312  65.7316884  27.1192704  43.5428645  65.6226044
  27.6803059  42.1607754  65.8813497  28.3310812  44.0421069  72.9015708
  29.0033865  43.8338431  72.2528357  27.5040598  43.8443155  72.4620941
  42.5800073  50.7825119  72.4191042  42.7735963  51.6870930  72.6650317
  42.4800691  50.3232538  73.2529627  34.2336384  40.6683010  74.9181369
  33.5864299  41.3672960  74.8245846  35.0037399  41.1019154  75.2857617
  37.6415182  50.9331862  77.9931922  37.4900688  50.7042414  77.0762006
  37.6319861  51.8902463  78.0063267  34.4100518  48.5063775  72.9778189
  35.3392578  48.6574934  72.8047156  33.9891548  48.5947796  72.1226835
  33.2088850  52.5314439  70.7476726  33.0699936  52.1633224  71.6202665
  32.4203446  53.0462079  70.5760684  33.8037002  57.6323536  62.0902263
  33.9788758  57.1611579  62.9047886  33.1169790  58.2589302  62.3183524
  34.7594065  51.9096042  68.1365564  34.4243898  51.8696812  69.0323214
  34.2598011  51.2440758  67.6635975  28.7338309  47.3163672  73.6618145
  28.5958107  46.5843911  74.2629684  29.6443233  47.2272572  73.3802333
  31.3620610  47.0283631  73.1501825  32.0720228  46.3876823  73.1088444
  31.3189918  47.2796526  74.0728006  39.3507388  53.9650985  76.0708404
  39.2919935  53.2810205  75.4038987  39.7526907  54.7069975  75.6189030
  30.0749544  44.0148849  74.9697465  29.5386901  43.5639588  75.6219061
  29.4866252  44.1494758  74.2267929  28.3698087  60.7812898  68.8642123
  28.6094685  61.4131423  69.5421142  27.5267284  60.4300938  69.1507482
  39.3524796  51.9290569  74.3022384  38.4651574  51.5916490  74.4248783
  39.9223347  51.1973600  74.5391149  21.0053943  48.2614660  67.6265435
  21.6924983  47.9476390  67.0386451  20.8502071  49.1656025  67.3532687
  25.8088665  43.1504857  72.0550459  25.7246854  42.5430526  71.3200869
  24.9871371  43.6413875  72.0559955  32.8825949  56.5892021  71.2683627
  32.8096121  57.3946992  71.7802932  32.4403342  56.7883987  70.4431649
  32.6715729  55.8263791  64.7786449  31.8883251  56.3685471  64.8724673
  33.3708474  56.3437771  65.1780690  35.9812379  41.6358420  67.4220654
  36.4781078  40.8828383  67.1021724  35.2099360  41.6722737  66.8563863
  43.8342136  47.3398786  69.0638946  43.8232012  48.2223501  68.6932879
  42.9659516  46.9870337  68.8693483  35.3424633  56.4878855  73.4241786
  36.0552605  57.1226320  73.3517687  34.8514661  56.5842721  72.6081788
  30.3936546  54.2373298  74.2447357  31.0946006  54.8709781  74.3976751
  29.9231661  54.5788030  73.4842996  38.4231374  38.6028014  69.5700013
  37.5094453  38.8332241  69.7382220  38.8524475  38.6866458  70.4214045
  38.1937832  46.7917906  72.0699907  37.5409282  47.0393813  71.4152360
  38.5718212  45.9782044  71.7362384  35.1545006  56.8277599  66.1728077
  35.3367400  56.0099255  66.6355830  35.9777992  57.0445291  65.7352967
  34.2425405  47.5337717  78.5565944  33.5666042  47.4331846  79.2268319
  35.0653039  47.3776931  79.0201941  25.9904264  53.7709653  71.1778459
  26.5757701  53.0253341  71.3106364  25.7929103  54.0813610  72.0615123
  28.8442919  56.8060901  66.1940902  28.1753295  57.2907028  65.7104942
  28.7055789  57.0530121  67.1084280  20.5821919  46.3415254  69.8982902
  20.6206018  45.8078844  70.6920021  20.0762212  45.8150459  69.2793880
  32.9848188  58.8404644  72.7923560  33.5366496  59.0036266  73.5572645
  33.3254381  59.4309082  72.1203585  27.9612681  41.1879794  73.3945445
  28.0254008  42.0494625  72.9822842  27.8979801  40.5753796  72.6617803
  27.4364954  43.2602927  77.0418479  28.0636993  42.8780004  77.6556003
  26.5792873  43.0417129  77.4074172  37.8359062  53.6665902  78.6472215
  38.3798966  54.2795860  78.1527169  37.2545907  54.2245480  79.1639228
  24.2130496  45.0679356  62.9736834  24.5083938  44.1590034  62.9203888
  23.3118532  45.0467095  62.6517836  36.1216575  56.7886620  69.7787242
  35.9967715  55.9876360  69.2698188  36.7795666  57.2832813  69.2901212
  27.7424743  43.1435352  68.9564382  27.0211329  43.7571320  68.8171856
  28.5317999  43.6793117  68.8781028  38.1851484  54.5895640  71.4066792
  37.2381819  54.4700991  71.3345119  38.5334257  53.7018138  71.4893054
  30.5451057  40.4789779  75.2305034  31.0685459  40.7252075  75.9931344
  30.3263390  41.3109814  74.8108172  25.9418338  42.7493453  63.0976159
  25.6131044  41.8690832  62.9151265  26.2957709  42.6941122  63.9852548
  35.1897917  54.3848356  67.6071145  35.0422879  53.4565064  67.7878715
  36.0151410  54.4068447  67.1228220  29.0560161  43.0366423  63.4651637
  29.3956234  43.5652345  62.7430245  29.5032282  43.3746829  64.2410203
  31.7503602  41.4203474  72.9154705  31.4100422  40.6211287  73.3175385
  31.0442608  41.7205185  72.3431538  32.4020074  38.5052786  71.3682028
  33.2246143  38.0313265  71.2460918  32.6458137  39.2843270  71.8680714
  29.9258653  45.1971907  69.1774006  29.7803233  45.5112210  70.0698288
  29.4483856  45.8156807  68.6244905  31.7855036  42.1874455  69.2254896
  31.7716604  41.2915548  68.8887194  32.5027464  42.1945119  69.8593182
  33.6381166  42.6211795  71.2708023  33.3798944  43.5428866  71.2692354
  33.1066207  42.2242230  71.9608488  24.4004315  47.7377251  72.1161668
  23.8557783  48.5137059  72.2481942  25.2783665  48.0848056  71.9580789
  34.0583122  38.7543746  67.6309186  34.0804819  38.8183079  66.6761165
  34.4751181  37.9148254  67.8249692  25.1870337  46.8647148  75.0091824
  24.4452073  47.0129783  75.5956455  24.8663081  47.1255413  74.1458574
  33.1313999  56.4063126  74.8072214  33.4401126  56.1612273  75.6794914
  33.9289481  56.6109764  74.3191085  33.1534611  58.5601036  67.0377591
  32.7139602  58.0677414  67.7310448  33.9042728  58.0174003  66.7969666
  25.6326950  54.7512576  67.0402219  26.4584970  54.4516348  66.6600863
  25.2821002  53.9820199  67.4892008  30.6008484  54.1039045  69.1099893
  29.9788493  53.4409750  68.8102121  31.2713350  54.1300177  68.4273540
  23.8335555  52.6698903  67.9991153  22.9967464  52.2421077  67.8175154
  23.8059201  52.8631346  68.9361944  30.6733011  42.5820833  78.7032399
  30.7221166  43.4582955  78.3210168  31.2155525  42.0398226  78.1304042
  41.1587857  53.1261956  77.9833536  40.3683400  53.1086095  77.4438035
  40.9221211  53.6650250  78.7382572  41.2785732  49.9754422  75.2966264
  41.3283737  49.8104430  76.2381787  41.1699655  49.1081681  74.9064145
  30.1621990  52.6542968  62.5858353  30.3110111  53.3378432  61.9325026
  30.9688434  52.6348058  63.1007809  38.5689494  45.9585350  76.6125571
  39.4699357  45.8191815  76.3209569  38.6437469  46.1239805  77.5523748
  32.9032299  43.3352205  75.4578757  32.0335609  43.6285771  75.1861346
  33.1391780  43.9192650  76.1786021  42.7803929  52.3951364  75.5408286
  42.4888737  52.7581344  76.3771747  42.1676060  51.6818372  75.3621618
  41.0291117  47.5183978  74.0088344  41.5045238  47.7111625  73.2007195
  40.1056682  47.5743164  73.7631728  27.9174623  48.6808146  63.5919422
  27.6720665  47.7770476  63.7899632  28.0870538  48.6825296  62.6498900
  35.6071333  39.5531822  72.9744178  36.1253277  40.2892849  72.6490666
  35.2526466  39.8595815  73.8090937  27.1870271  44.4136503  61.0905584
  26.4939516  44.4880858  60.4345620  26.9422023  43.6496847  61.6127101
  35.8583927  35.9732105  68.4945074  36.1385681  35.3055294  69.1205501
  36.6434534  36.1661200  67.9819738  39.7292786  44.3949739  72.2416649
  40.6810209  44.4947836  72.2628873  39.5596236  43.6028007  72.7514734
  37.7507165  41.4805322  72.4276050  37.1557097  41.7610334  71.7322539
  37.4656862  41.9699223  73.1992791  42.2080864  47.6155858  71.3558949
  42.1757184  46.6771859  71.5418633  42.8181487  47.6939895  70.6224774
  42.3575352  44.4066902  71.4017232  41.8414401  43.6225358  71.2147161
  43.2415301  44.0785618  71.5663752  40.0186079  38.1507917  67.3613045
  39.8210900  37.8423005  68.2456377  40.6285785  38.8769556  67.4910975
  48.0257413  48.6771865  70.4964986  48.7560802  48.4157153  71.0572689
  47.4164359  47.9400587  70.5367054  46.1072711  46.8179728  71.0939437
  45.3805874  46.6835693  70.4855929  45.6919997  47.1256556  71.8996155
  33.9302887  50.5369657  78.8586810  34.8505896  50.7148256  79.0526857
  33.8952470  49.5925703  78.7066509  23.1485052  45.7308251  67.7840085
  22.8287836  44.8773559  67.4914459  22.6018480  45.9456829  68.5398052
  26.9264960  48.4470692  71.5009591  27.1450969  49.3787800  71.5197625
  27.3390733  48.0878666  72.2864395  31.7992825  44.0203898  80.8912340
  31.6989552  44.9698255  80.8224431  31.5814367  43.6922137  80.0188410
  23.0173312  49.3511162  69.7533206  22.3236783  48.9365115  69.2403161
  23.7646303  49.3931699  69.1566625  37.6042099  39.5422407  66.8209561
  38.1041877  39.6538942  66.0123880  38.2477707  39.2383460  67.4610369
  31.6624095  47.4501037  79.7077402  31.1791177  48.2501397  79.9141291
  31.7485034  47.4608981  78.7544846  24.9310055  49.2829416  67.6299221
  24.9080743  49.3817104  66.6781104  25.2410691  50.1294567  67.9516387
  27.5897432  51.3405571  71.7445836  28.5440686  51.3089514  71.6775767
  27.3909956  50.8796195  72.5596062  28.1796815  49.9106687  74.3116633
  28.9989703  50.4050766  74.3351471  28.4533622  48.9938655  74.2834201
  41.2877947  42.3263961  67.3898928  42.0638337  42.8160413  67.6623545
  40.5626081  42.7522015  67.8470798  43.7250505  43.0391580  68.4472869
  44.3194996  42.7987316  67.7366177  43.7977089  42.3198710  69.0746405
  25.9447661  56.8825191  68.7616034  25.8102129  56.1225592  68.1954032
  25.5279723  57.6066091  68.2944822  46.0321578  46.3457781  67.2216290
  45.4721136  46.4150970  67.9947852  45.4265082  46.1698765  66.5015786
  29.1016787  57.7794508  68.9734476  28.9849171  58.7239940  68.8713166
  28.2809233  57.4768069  69.3620275  23.4331729  44.2444821  75.0108830
  24.0790592  43.7343775  75.4996056  23.2248880  44.9813503  75.5852256
  35.9585121  51.3125669  80.5100971  36.8276281  51.4866321  80.1487606
  35.4791872  52.1320086  80.3876700  30.1271301  58.4322770  72.1890405
  31.0298548  58.4646380  72.5056900  29.9008671  57.5023221  72.2036740
  31.8824903  57.1853756  68.8500483  30.9320534  57.1855618  68.7364855
  32.1857389  56.4386491  68.3336518  27.7729220  41.3912438  79.1083845
  28.6360681  41.0349243  79.3187169  27.1994630  41.0526333  79.7959249
  47.6177597  63.0214295  69.9146246  48.2556007  62.9021042  69.2109586
  47.4998440  63.9695139  69.9734198  44.9087086  64.1276574  75.8093976
  44.8975727  63.7329373  74.9374479  45.0707725  63.3942647  76.4027747
  41.6294347  66.9113686  74.7573160  41.3384213  67.8159317  74.6419826
  42.2651331  66.9530214  75.4717229  47.1718865  60.7465748  66.9899454
  47.9581954  60.3285172  66.6389871  47.4357569  61.6511841  67.1581102
  52.5727292  60.6840982  67.8932432  53.3052464  60.1140199  68.1270262
  51.8166648  60.2962582  68.3338938  50.0952713  54.3962556  72.3527041
  49.7636037  55.2657967  72.1288256  49.4998326  54.0798840  73.0321071
  46.5884232  66.5975102  71.7522953  46.2884955  67.5000141  71.6438761
  46.2435292  66.3307285  72.6044106  40.0396714  63.0488899  67.7859658
  39.1147210  62.9165113  67.9937350  40.2881127  63.8283118  68.2829600
  49.9881376  59.1157642  69.4320391  49.0798253  59.0473050  69.1379152
  49.9368972  59.5929587  70.2602216  37.4005525  62.6922172  68.6203447
  37.5297906  62.9456651  69.5342859  36.7202976  63.2849880  68.3008102
  44.0622242  60.5347288  77.3755288  43.2855576  61.0941208  77.3658153
  44.7012805  61.0204071  77.8970158  51.8543022  57.3174080  71.2098265
  51.2117403  57.6106614  70.5638059  51.3497951  57.2027001  72.0151461
  42.3168614  63.3432741  76.9373255  43.0583298  63.8817785  76.6608079
  41.6105600  63.9699030  77.0944807  47.7923954  65.4861881  75.5345417
  48.2007310  65.0444292  74.7900049  47.0701215  64.9114509  75.7879609
  44.1455024  60.4234488  72.9078974  44.9916219  60.8473902  73.0513623
  44.0853661  59.7668112  73.6017537  47.2954469  58.0838857  74.5660147
  47.0515401  58.8380917  74.0294423  47.5714400  58.4624204  75.4007394
  49.2492932  64.6277469  73.2437413  49.4609827  65.2709229  72.5671794
  49.2022680  63.7939785  72.7759343  41.0529978  60.4972389  77.7388565
  40.4228638  61.1788670  77.9723962  40.9466066  60.3855471  76.7941703
  36.3474950  60.1644185  68.6654489  35.5574004  60.4201714  68.1894600
  36.8386198  60.9792523  68.7706530  50.3638760  67.5049424  71.4159770
  51.1856204  67.1029612  71.1342452  50.3601163  67.4017658  72.3675886
  44.1295363  67.0533468  73.5720481  44.1939796  67.5153875  74.4078652
  43.4206287  66.4230833  73.7002790  34.6312653  60.4174676  71.0969480
  34.8820692  61.3021685  71.3627056  35.1672202  60.2379277  70.3244572
  40.3310721  54.7993155  80.1013816  39.9377666  54.2459354  80.7761460
  41.1476861  55.1103733  80.4920334  43.2478682  56.2151034  77.6934073
  43.9888395  56.8158187  77.6138535  43.4796604  55.4728672  77.1352115
  38.3920020  61.4007401  75.9712302  38.2773535  60.4992659  76.2719401
  37.5364537  61.6471098  75.6197119  45.4711857  69.3425142  77.5699803
  45.0275711  68.5561520  77.2520707  46.1329071  69.5304292  76.9043694
  40.2298978  70.8720943  72.0960482  40.7806404  70.7438007  71.3237475
  39.3910454  71.1715832  71.7455374  47.5693095  69.6227942  75.5981204
  47.5511571  70.4436823  75.1061473  48.4913015  69.4982017  75.8231345
  44.0266150  67.1372071  76.4404713  44.5594486  66.3760359  76.2104021
  43.4980231  66.8445723  77.1828867  47.1935844  52.2432137  71.9698354
  46.8500114  53.1333779  71.8937465  47.5614807  52.0533795  71.1067939
  35.2621695  64.5665667  64.7886957  36.0996917  64.9762676  64.5720664
  35.4399963  63.6265110  64.7587150  46.2732385  54.6136792  69.9347588
  45.7697180  54.5766927  69.1215393  46.5662992  55.5229535  69.9944244
  50.3711708  64.4607084  69.0690571  49.7135383  65.1506345  69.1570700
  51.1752107  64.8503516  69.4124557  48.8911883  58.7249444  66.4774323
  48.1534640  58.2126830  66.8084565  49.1438656  58.2849826  65.6657600
  35.2847866  61.9056383  65.4597690  35.0872266  61.3125743  64.7348757
  34.7294530  61.6008593  66.1773629  46.8011161  60.8798373  74.1697556
  47.1560549  61.1069847  75.0292022  47.4483293  61.2116750  73.5474811
  52.5578278  66.0693336  69.8858156  52.9914785  65.9768625  70.7341210
  53.2709859  66.0450837  69.2478172  46.2906173  69.6695430  71.4191257
  46.3443195  70.2386367  72.1868973  45.4220954  69.8397315  71.0545294
  39.1704566  59.3712987  72.9015708  39.8427620  59.1630349  72.2528357
  38.3434353  59.1735073  72.4620941  53.4193828  66.1117037  72.4191042
  53.6129718  67.0162848  72.6650317  53.3194446  65.6524456  73.2529627
  45.0730138  55.9974928  74.9181369  44.4258053  56.6964877  74.8245846
  45.8431154  56.4311072  75.2857617  48.4808936  66.2623780  77.9931922
  48.3294443  66.0334331  77.0762006  48.4713616  67.2194381  78.0063267
  45.2494273  63.8355692  72.9778189  46.1786333  63.9866852  72.8047156
  44.8285303  63.9239713  72.1226835  39.5732064  62.6455590  73.6618145
  39.4351861  61.9135828  74.2629684  40.4836987  62.5564490  73.3802333
  42.2014364  62.3575549  73.1501825  42.9113983  61.7168741  73.1088444
  42.1583672  62.6088444  74.0728006  50.1901143  69.2942902  76.0708404
  50.1313689  68.6102122  75.4038987  50.5920661  70.0361892  75.6189030
  40.9143298  59.3440767  74.9697465  40.3780655  58.8931505  75.6219061
  40.3260007  59.4786676  74.2267929  39.2091842  76.1104816  68.8642123
  39.4488440  76.7423340  69.5421142  38.3661038  75.7592856  69.1507482
  50.1918550  67.2582486  74.3022384  49.3045329  66.9208408  74.4248783
  50.7617101  66.5265517  74.5391149  31.8447697  63.5906578  67.6265435
  32.5318737  63.2768308  67.0386451  31.6895826  64.4947943  67.3532687
  36.6482419  58.4796775  72.0550459  36.5640608  57.8722444  71.3200869
  35.8265126  58.9705793  72.0559955  43.7219704  71.9183939  71.2683627
  43.6489875  72.7238910  71.7802932  43.2797097  72.1175904  70.4431649
  54.6735891  62.6690704  69.0638946  54.6625767  63.5515419  68.6932879
  53.8053270  62.3162254  68.8693483  46.1818387  71.8170773  73.4241786
  46.8946359  72.4518237  73.3517687  45.6908416  71.9134639  72.6081788
  41.2330301  69.5665216  74.2447357  41.9339760  70.2001699  74.3976751
  40.7625416  69.9079948  73.4842996  49.2625128  53.9319932  69.5700013
  48.3488208  54.1624158  69.7382220  49.6918230  54.0158376  70.4214045
  49.0331587  62.1209824  72.0699907  48.3803037  62.3685731  71.4152360
  49.4111966  61.3073962  71.7362384  45.9938760  72.1569517  66.1728077
  46.1761155  71.3391173  66.6355830  46.8171746  72.3737209  65.7352967
  45.0819160  62.8629635  78.5565944  44.4059797  62.7623764  79.2268319
  45.9046793  62.7068848  79.0201941  36.8298019  69.1001571  71.1778459
  37.4151455  68.3545259  71.3106364  36.6322857  69.4105528  72.0615123
  31.4215673  61.6707171  69.8982902  31.4599773  61.1370762  70.6920021
  30.9155966  61.1442377  69.2793880  43.8241942  74.1696562  72.7923560
  44.3760251  74.3328184  73.5572645  44.1648136  74.7601000  72.1203585
  38.8006436  56.5171712  73.3945445  38.8647762  57.3786543  72.9822842
  38.7373556  55.9045713  72.6617803  38.2758708  58.5894844  77.0418479
  38.9030747  58.2071922  77.6556003  37.4186627  58.3709046  77.4074172
  48.6752817  68.9957820  78.6472215  49.2192721  69.6087778  78.1527169
  48.0939662  69.5537398  79.1639228  35.0524251  60.3971273  62.9736834
  35.3477692  59.4881952  62.9203888  34.1512287  60.3759013  62.6517836
  46.9610330  72.1178538  69.7787242  46.8361469  71.3168277  69.2698188
  47.6189421  72.6124731  69.2901212  49.0245238  69.9187558  71.4066792
  48.0775574  69.7992909  71.3345119  49.3728011  69.0310056  71.4893054
  41.3844812  55.8081697  75.2305034  41.9079213  56.0543993  75.9931344
  41.1657145  56.6401731  74.8108172  49.6325793  70.5368833  68.6936017
  50.5572341  70.3311694  68.5560468  49.4641097  70.2885234  69.6025359
  42.5897357  56.7495392  72.9154705  42.2494177  55.9503205  73.3175385
  41.8836363  57.0497103  72.3431538  35.2398069  63.0669169  72.1161668
  34.6951537  63.8428977  72.2481942  36.1177419  63.4139974  71.9580789
  36.0264091  62.1939065  75.0091824  35.2845827  62.3421701  75.5956455
  35.7056835  62.4547331  74.1458574  43.9707754  71.7355044  74.8072214
  44.2794880  71.4904190  75.6794914  44.7683236  71.9401682  74.3191085
  43.9928366  73.8892953  67.0377591  43.5533356  73.3969332  67.7310448
  44.7436483  73.3465921  66.7969666  34.6729310  67.9990821  67.9991153
  33.8361218  67.5712995  67.8175154  34.6452955  68.1923264  68.9361944
  41.5126765  57.9112750  78.7032399  41.5614921  58.7874873  78.3210168
  42.0549280  57.3690143  78.1304042  51.9981611  68.4553874  77.9833536
  51.2077155  68.4378012  77.4438035  51.7614966  68.9942167  78.7382572
  52.1179486  65.3046340  75.2966264  52.1677491  65.1396347  76.2381787
  52.0093410  64.4373599  74.9064145  49.4083249  61.2877268  76.6125571
  50.3093111  61.1483733  76.3209569  49.4831223  61.4531723  77.5523748
  43.7426054  58.6644123  75.4578757  42.8729363  58.9577689  75.1861346
  43.9785534  59.2484568  76.1786021  53.6197683  67.7243282  75.5408286
  53.3282491  68.0873262  76.3771747  53.0069814  67.0110290  75.3621618
  51.8684871  62.8475896  74.0088344  52.3438993  63.0403542  73.2007195
  50.9450437  62.9035082  73.7631728  46.4465088  54.8823740  72.9744178
  46.9647032  55.6184767  72.6490666  46.0920221  55.1887733  73.8090937
  46.6977682  51.3024022  68.4945074  46.9779436  50.6347211  69.1205501
  47.4828289  51.4953118  67.9819738  50.5686540  59.7241656  72.2416649
  51.5203963  59.8239754  72.2628873  50.3989991  58.9319925  72.7514734
  48.5900920  56.8097239  72.4276050  47.9950852  57.0902252  71.7322539
  48.3050616  57.2991140  73.1992791  53.0474618  62.9447776  71.3558949
  53.0150938  62.0063777  71.5418633  53.6575242  63.0231813  70.6224774
  53.1969107  59.7358819  71.4017232  52.6808155  58.9517276  71.2147161
  54.0809055  59.4077536  71.5663752  50.8579833  53.4799835  67.3613045
  50.6604655  53.1714923  68.2456377  51.4679539  54.2061474  67.4910975
  56.9466465  62.1471645  71.0939437  56.2199629  62.0127610  70.4855929
  56.5313752  62.4548474  71.8996155  44.7696641  65.8661575  78.8586810
  45.6899651  66.0440174  79.0526857  44.7346225  64.9217620  78.7066509
  33.9878806  61.0600169  67.7840085  33.6681591  60.2065477  67.4914459
  33.4412235  61.2748747  68.5398052  37.7658714  63.7762610  71.5009591
  37.9844724  64.7079717  71.5197625  38.1784488  63.4170584  72.2864395
  42.6386579  59.3495815  80.8912340  42.5383306  60.2990172  80.8224431
  42.4208121  59.0214054  80.0188410  33.8567066  64.6803080  69.7533206
  33.1630538  64.2657033  69.2403161  34.6040057  64.7223617  69.1566625
  49.9932287  55.4709267  64.6188241  49.4130956  56.1294071  64.2366293
  49.7268220  54.6486612  64.2075658  48.4435854  54.8714325  66.8209561
  48.9435632  54.9830859  66.0123880  49.0871461  54.5675378  67.4610369
  42.5017849  62.7792954  79.7077402  42.0184931  63.5793314  79.9141291
  42.5878788  62.7900899  78.7544846  35.7703809  64.6121334  67.6299221
  35.7474497  64.7109021  66.6781104  36.0804445  65.4586485  67.9516387
  38.4291187  66.6697489  71.7445836  39.3834440  66.6381431  71.6775767
  38.2303710  66.2088113  72.5596062  39.0190569  65.2398605  74.3116633
  39.8383458  65.7342684  74.3351471  39.2927377  64.3230573  74.2834201
  48.7757165  57.6309357  63.6744589  47.8883020  57.9159008  63.4564784
  49.1911154  57.4703121  62.8271866  52.1271701  57.6555878  67.3898928
  52.9032091  58.1452331  67.6623545  51.4019836  58.0813933  67.8470798
  54.5644260  58.3683498  68.4472869  55.1588751  58.1279233  67.7366177
  54.6370844  57.6490628  69.0746405  52.5602995  58.9353625  64.7144998
  52.3039929  58.5350261  65.5453206  51.9355863  59.6497419  64.5895138
  39.9410542  73.1086425  68.9734476  39.8242926  74.0531858  68.8713166
  39.1202988  72.8059987  69.3620275  34.2725483  59.5736739  75.0108830
  34.9184347  59.0635693  75.4996056  34.0642634  60.3105421  75.5852256
  46.7978875  66.6417586  80.5100971  47.6670035  66.8158239  80.1487606
  46.3185627  67.4612003  80.3876700  40.9665056  73.7614687  72.1890405
  41.8692302  73.7938298  72.5056900  40.7402426  72.8315138  72.2036740
  42.7218658  72.5145674  68.8500483  41.7714289  72.5147536  68.7364855
  43.0251144  71.7678409  68.3336518  38.6122974  56.7204356  79.1083845
  39.4754436  56.3641161  79.3187169  38.0388385  56.3818251  79.7959249
  58.4571351  78.3506212  69.9146246  59.0949761  78.2312960  69.2109586
  58.3392194  79.2987056  69.9734198  55.2661057  78.3033640  69.8507770
  54.9279569  78.1874705  68.9628305  56.1350826  77.9024806  69.8308776
  51.1247873  80.1569117  65.8404661  50.5612738  80.0659054  65.0720949
  51.0100268  79.3369021  66.3207154  55.7480840  79.4568492  75.8093976
  55.7369481  79.0621290  74.9374479  55.9101480  78.7234565  76.4027747
  48.6712305  81.6520308  68.6788882  49.4633597  81.3111133  68.2635181
  48.9108955  81.7615283  69.5991035  56.7047432  83.8240085  61.1519126
  56.0535412  84.4094165  60.7653140  57.4991795  84.3546279  61.2114164
  50.6303059  80.9129222  61.5506260  51.4033935  80.3658209  61.4119136
  50.9828458  81.7773471  61.7620722  52.4688102  82.2405604  74.7573160
  52.1777968  83.1451235  74.6419826  53.1045086  82.2822132  75.4717229
  53.3944308  79.6182452  71.3474519  53.9907881  79.3938475  70.6331482
  53.4519280  78.8767198  71.9499967  58.1822697  81.5130516  61.6888110
  57.5468530  81.5865143  62.4009015  57.8520103  82.1024115  61.0107190
  63.4121047  76.0132899  67.8932432  64.1446219  75.4432116  68.1270262
  62.6560402  75.6254500  68.3338938  57.4277987  81.9267019  71.7522953
  57.1278710  82.8292058  71.6438761  57.0829046  81.6599203  72.6044106
  50.8790468  78.3780816  67.7859658  49.9540965  78.2457030  67.9937350
  51.1274881  79.1575036  68.2829600  48.2399279  78.0214090  68.6203447
  48.3691660  78.2748569  69.5342859  47.5596730  78.6141798  68.3008102
  52.4098766  88.6911340  64.7193921  52.3322796  89.6419165  64.7982402
  51.8060410  88.3457212  65.3768847  54.9015996  75.8639205  77.3755288
  54.1249330  76.4233125  77.3658153  55.5406559  76.3495988  77.8970158
  53.1562369  78.6724659  76.9373255  53.8977053  79.2109703  76.6608079
  52.4499354  79.2990947  77.0944807  58.6317708  80.8153799  75.5345417
  59.0401064  80.3736210  74.7900049  57.9094970  80.2406427  75.7879609
  54.9848778  75.7526406  72.9078974  55.8309973  76.1765819  73.0513623
  54.9247416  75.0960030  73.6017537  58.9546523  81.3754990  69.2897705
  58.3255385  81.5400704  68.5873773  58.5672185  81.7896599  70.0608669
  62.8335755  82.3109428  66.6442069  62.1486793  82.6908329  66.0939103
  62.9179604  82.9204754  67.3774017  58.1348224  73.4130774  74.5660147
  57.8909155  74.1672835  74.0294423  58.4108154  73.7916122  75.4007394
  60.0886686  79.9569387  73.2437413  60.3003582  80.6001146  72.5671794
  60.0416435  79.1231703  72.7759343  54.5074485  81.1129398  66.5547791
  54.9712830  81.3917101  65.7652413  54.2431283  80.2112842  66.3720881
  51.3998566  80.6600879  69.4927554  51.9699923  81.0888148  68.8545038
  51.9906678  80.3783464  70.1911739  51.8923732  75.8264307  77.7388565
  51.2622393  76.5080588  77.9723962  51.7859820  75.7147388  76.7941703
  47.1868705  75.4936103  68.6654489  46.3967759  75.7493631  68.1894600
  47.6779952  76.3084441  68.7706530  61.2032514  82.8341342  71.4159770
  62.0249958  82.4321529  71.1342452  61.1994917  82.7309576  72.3675886
  49.1383450  75.8580682  65.6237966  48.3414613  75.9699376  66.1421462
  48.9109042  76.1967334  64.7578856  54.9689118  82.3825385  73.5720481
  55.0333550  82.8445793  74.4078652  54.2600042  81.7522750  73.7002790
  45.4706408  75.7466593  71.0969480  45.7214446  76.6313603  71.3627056
  46.0065956  75.5671195  70.3244572  69.2938507  79.1780090  67.7644742
  68.5402216  78.6087489  67.6088746  69.4286049  79.1442755  68.7115376
  54.6837135  84.0493493  63.4399461  54.5482810  84.8945029  63.8684309
  55.2246948  84.2512770  62.6765395  51.1704475  70.1285073  80.1013816
  50.7771421  69.5751271  80.7761460  51.9870615  70.4395651  80.4920334
  48.1366533  81.5668931  64.0127386  48.6491053  82.3612181  64.1632951
  48.7889246  80.8695221  63.9460987  49.9461417  84.6834687  66.0950139
  50.1228046  85.6052652  65.9071123  50.7418251  84.3693106  66.5244519
  54.0872436  71.5442952  77.6934073  54.8282149  72.1450105  77.6138535
  54.3190359  70.8020590  77.1352115  49.2313774  76.7299319  75.9712302
  49.1167289  75.8284576  76.2719401  48.3758292  76.9763016  75.6197119
  56.3105612  84.6717059  77.5699803  55.8669466  83.8853438  77.2520707
  56.9722825  84.8596210  76.9043694  51.0692733  86.2012861  72.0960482
  51.6200158  86.0729924  71.3237475  50.2304209  86.5007750  71.7455374
  58.4086850  84.9519859  75.5981204  58.3905325  85.7728740  75.1061473
  59.3306770  84.8273934  75.8231345  54.8659904  82.4663989  76.4404713
  55.3988241  81.7052277  76.2104021  54.3373985  82.1737641  77.1828867
  46.1015450  79.8957585  64.7886957  46.9390672  80.3054593  64.5720664
  46.2793717  78.9557027  64.7587150  53.3569025  70.0267440  68.9413769
  54.2222022  69.8310248  68.5819659  53.4246534  69.7977791  69.8683126
  62.9714156  80.3165020  62.4123963  62.1943599  79.9776180  61.9679125
  63.6505637  80.3217644  61.7378928  56.2312617  81.5949981  63.9523525
  55.7033978  80.8602741  63.6396762  55.7300119  82.3724658  63.7063493
  61.2105463  79.7899002  69.0690571  60.5529137  80.4798263  69.1570700
  62.0145862  80.1795434  69.4124557  60.0210922  78.1443374  67.1194513
  60.5342803  78.7773366  67.6216222  60.6712145  77.5444570  66.7537873
  57.2833296  88.1227699  59.8755184  56.6094995  88.4259395  60.4840142
  57.6699118  88.9256779  59.5260641  56.4991752  75.6192830  69.3652853
  55.5814314  75.8407777  69.2074541  56.9151896  75.6939140  68.5064561
  60.7872718  83.1249376  65.2473655  60.3335045  82.2840286  65.3038846
  60.1566684  83.7610774  65.5848435  59.2305657  84.9625872  66.1823473
  59.5228631  85.5230930  65.4635839  59.7404278  85.2554433  66.9376633
  46.1241621  77.2348300  65.4597690  45.9266021  76.6417661  64.7348757
  45.5688285  76.9300511  66.1773629  54.1939282  85.7406224  67.2716927
  54.1515461  85.9667070  66.3425459  55.1101981  85.5069598  67.4202728
  57.6404916  76.2090291  74.1697556  57.9954304  76.4361764  75.0292022
  58.2877047  76.5408668  73.5474811  63.3702653  79.3308727  64.8746885
  63.2320551  79.5210323  63.9468074  63.0138872  80.0928110  65.3314936
  51.5344779  73.3166822  70.9543897  52.1744158  73.1755581  70.2566860
  50.7022310  73.0301336  70.5782499  63.3972032  81.3985254  69.8858156
  63.8308539  81.3060543  70.7341210  64.1103613  81.3742754  69.2478172
  52.3105083  82.6169253  67.0678889  53.1045681  82.1219573  66.8661464
  51.5996775  82.0887116  66.7046595  57.1299927  84.9987348  71.4191257
  57.1836950  85.5678284  72.1868973  56.2614709  85.1689233  71.0545294
  48.5373395  73.2867147  65.7316884  48.7980213  74.2012480  65.6226044
  49.3590568  72.8191590  65.8813497  50.0098321  74.7004904  72.9015708
  50.6821374  74.4922266  72.2528357  49.1828107  74.5026990  72.4620941
  64.2587582  81.4408955  72.4191042  64.4523472  82.3454765  72.6650317
  64.1588200  80.9816374  73.2529627  55.9123893  71.3266845  74.9181369
  55.2651808  72.0256795  74.8245846  56.6824908  71.7602989  75.2857617
  59.3202691  81.5915697  77.9931922  59.1688197  81.3626249  77.0762006
  59.3107370  82.5486299  78.0063267  56.0888027  79.1647610  72.9778189
  57.0180087  79.3158770  72.8047156  55.6679057  79.2531631  72.1226835
  54.8876359  83.1898275  70.7476726  54.7487445  82.8217059  71.6202665
  54.0990955  83.7045914  70.5760684  55.4824511  88.2907371  62.0902263
  55.6576267  87.8195414  62.9047886  54.7957299  88.9173137  62.3183524
  56.4381574  82.5679877  68.1365564  56.1031407  82.5280647  69.0323214
  55.9385520  81.9024593  67.6635975  50.4125818  77.9747507  73.6618145
  50.2745616  77.2427746  74.2629684  51.3230742  77.8856407  73.3802333
  53.0408119  77.6867467  73.1501825  53.7507737  77.0460659  73.1088444
  52.9977427  77.9380361  74.0728006  61.0294897  84.6234820  76.0708404
  60.9707444  83.9394040  75.4038987  61.4314416  85.3653810  75.6189030
  51.7537053  74.6732685  74.9697465  51.2174410  74.2223423  75.6219061
  51.1653761  74.8078593  74.2267929  50.0485596  91.4396734  68.8642123
  50.2882194  92.0715258  69.5421142  49.2054793  91.0884774  69.1507482
  61.0312305  82.5874404  74.3022384  60.1439083  82.2500326  74.4248783
  61.6010856  81.8557435  74.5391149  42.6841452  78.9198496  67.6265435
  43.3712492  78.6060226  67.0386451  42.5289580  79.8239860  67.3532687
  47.4876174  73.8088692  72.0550459  47.4034363  73.2014362  71.3200869
  46.6658880  74.2997711  72.0559955  54.5613458  87.2475856  71.2683627
  54.4883630  88.0530828  71.7802932  54.1190851  87.4467822  70.4431649
  54.3503238  86.4847626  64.7786449  53.5670760  87.0269306  64.8724673
  55.0495983  87.0021606  65.1780690  65.5129645  77.9982621  69.0638946
  65.5019521  78.8807337  68.6932879  64.6447025  77.6454172  68.8693483
  57.0212142  87.1462690  73.4241786  57.7340114  87.7810155  73.3517687
  56.5302170  87.2426556  72.6081788  58.7429668  81.0513943  64.9959078
  57.8085947  81.1715405  64.8263782  58.9206337  80.1486410  64.7319087
  62.1302220  76.8931262  65.5309112  62.5962672  77.7259254  65.4569414
  62.5809720  76.4276244  66.2354370  52.0724055  84.8957134  74.2447357
  52.7733515  85.5293617  74.3976751  51.6019170  85.2371865  73.4842996
  60.1978451  83.2375084  62.5295264  60.4738295  83.1231678  63.4389138
  59.3282950  82.8392568  62.4907437  59.8725341  77.4501741  72.0699907
  59.2196791  77.6977649  71.4152360  60.2505721  76.6365879  71.7362384
  56.8332515  87.4861434  66.1728077  57.0154909  86.6683090  66.6355830
  57.6565501  87.7029127  65.7352967  57.1674680  86.4129620  63.4343126
  57.6962447  85.9022074  62.8213288  57.4302900  86.0972150  64.2988659
  55.9212914  78.1921552  78.5565944  55.2453551  78.0915682  79.2268319
  56.7440548  78.0360766  79.0201941  47.6691773  84.4293489  71.1778459
  48.2545210  83.6837177  71.3106364  47.4716612  84.7397446  72.0615123
  50.5230428  87.4644736  66.1940902  49.8540804  87.9490864  65.7104942
  50.3843298  87.7113957  67.1084280  42.2609428  76.9999089  69.8982902
  42.2993527  76.4662680  70.6920021  41.7549721  76.4734295  69.2793880
  54.6635697  89.4988480  72.7923560  55.2154005  89.6620101  73.5572645
  55.0041890  90.0892918  72.1203585  49.6400190  71.8463630  73.3945445
  49.7041517  72.7078460  72.9822842  49.5767310  71.2337631  72.6617803
  49.1152463  73.9186762  77.0418479  49.7424502  73.5363839  77.6556003
  48.2580382  73.7000964  77.4074172  59.5146571  84.3249737  78.6472215
  60.0586475  84.9379695  78.1527169  58.9333416  84.8829316  79.1639228
  45.8918005  75.7263191  62.9736834  46.1871447  74.8173870  62.9203888
  44.9906041  75.7050931  62.6517836  57.8004084  87.4470455  69.7787242
  57.6755224  86.6460195  69.2698188  58.4583175  87.9416649  69.2901212
  49.4212252  73.8019188  68.9564382  48.6998838  74.4155155  68.8171856
  50.2105508  74.3376953  68.8781028  59.8638993  85.2479475  71.4066792
  58.9169328  85.1284827  71.3345119  60.2121766  84.3601973  71.4893054
  52.2238566  71.1373614  75.2305034  52.7472968  71.3835911  75.9931344
  52.0050899  71.9693649  74.8108172  56.8685426  85.0432192  67.6071145
  56.7210388  84.1148899  67.7878715  57.6938919  85.0652282  67.1228220
  60.4719548  85.8660750  68.6936017  61.3966095  85.6603612  68.5560468
  60.3034851  85.6177151  69.6025359  53.4291111  72.0787309  72.9154705
  53.0887931  71.2795122  73.3175385  52.7230117  72.3789020  72.3431538
  54.0807583  69.1636622  71.3682028  54.9033652  68.6897100  71.2460918
  54.3245646  69.9427106  71.8680714  51.6046162  75.8555742  69.1774006
  51.4590742  76.1696045  70.0698288  51.1271365  76.4740643  68.6244905
  53.4642545  72.8458290  69.2254896  53.4504113  71.9499384  68.8887194
  54.1814973  72.8528954  69.8593182  55.3168675  73.2795631  71.2708023
  55.0586453  74.2012701  71.2692354  54.7853716  72.8826065  71.9608488
  60.2614864  86.3846418  64.0498109  60.4351742  85.8192840  63.2971961
  60.7543755  87.1847313  63.8677599  46.0791824  78.3961087  72.1161668
  45.5345292  79.1720895  72.2481942  46.9571174  78.7431891  71.9580789
  66.1154255  79.1482841  65.6688409  66.5585401  78.3990166  65.2707532
  65.2380765  79.1392977  65.2862140  61.2490036  85.7013182  61.1495007
  61.9440941  86.3219875  61.3682322  61.5913187  84.8508533  61.4247385
  46.8657846  77.5230983  75.0091824  46.1239582  77.6713618  75.5956455
  46.5450590  77.7839249  74.1458574  63.1481460  83.1512888  62.6782338
  63.6732784  83.4900160  61.9531658  63.0603812  82.2159903  62.4945472
  54.8101508  87.0646961  74.8072214  55.1188635  86.8196108  75.6794914
  55.6076990  87.2693600  74.3191085  54.8322120  89.2184871  67.0377591
  54.3927111  88.7261250  67.7310448  55.5830237  88.6757839  66.7969666
  47.3114459  85.4096412  67.0402219  48.1372479  85.1100184  66.6600863
  46.9608511  84.6404034  67.4892008  52.2795992  84.7622880  69.1099893
  51.6576002  84.0993585  68.8102121  52.9500859  84.7884012  68.4273540
  45.5123064  83.3282738  67.9991153  44.6754973  82.9004913  67.8175154
  45.4846710  83.5215182  68.9361944  52.3520520  73.2404668  78.7032399
  52.4008675  74.1166791  78.3210168  52.8943034  72.6982061  78.1304042
  62.8375366  83.7845791  77.9833536  62.0470909  83.7669930  77.4438035
  62.6008720  84.3234085  78.7382572  62.9573241  80.6338258  75.2966264
  63.0071246  80.4688265  76.2381787  62.8487164  79.7665517  74.9064145
  51.8409499  83.3126803  62.5858353  51.9897620  83.9962268  61.9325026
  52.6475943  83.2931893  63.1007809  60.2477003  76.6169186  76.6125571
  61.1486866  76.4775651  76.3209569  60.3224978  76.7823641  77.5523748
  54.5819808  73.9936040  75.4578757  53.7123118  74.2869607  75.1861346
  54.8179289  74.5776485  76.1786021  64.4591438  83.0535199  75.5408286
  64.1676246  83.4165180  76.3771747  63.8463569  82.3402207  75.3621618
  65.6587120  80.6188079  68.0610856  66.4934011  81.0577883  68.2248416
  65.7946249  80.1426732  67.2419102  62.7078626  78.1767814  74.0088344
  63.1832747  78.3695460  73.2007195  61.7844191  78.2327000  73.7631728
  49.5962132  79.3391981  63.5919422  49.3508174  78.4354311  63.7899632
  49.7658047  79.3409131  62.6498900  57.2858842  70.2115657  72.9744178
  57.8040786  70.9476684  72.6490666  56.9313975  70.5179651  73.8090937
  55.3404905  85.8074934  60.0570101  54.7678872  86.4265121  59.6040572
  55.9137699  86.3574296  60.5910023  61.4080295  75.0533574  72.2416649
  62.3597718  75.1531672  72.2628873  61.2383745  74.2611842  72.7514734
  59.4294674  72.1389157  72.4276050  58.8344606  72.4194170  71.7322539
  59.1444371  72.6283058  73.1992791  58.5602165  86.0912084  61.1878683
  59.4932838  86.0257646  61.3911558  58.4725378  86.9268351  60.7293216
  61.1890181  85.4077954  58.1482630  61.1103813  85.0737818  59.0418388
  62.0099848  85.8999722  58.1474103  63.8868373  78.2739694  71.3558949
  63.8544693  77.3355694  71.5418633  64.4968996  78.3523730  70.6224774
  64.0362861  75.0650737  71.4017232  63.5201910  74.2809194  71.2147161
  64.9202810  74.7369454  71.5663752  69.7044922  79.3355700  70.4964986
  70.4348311  79.0740989  71.0572689  69.0951868  78.5984422  70.5367054
  67.7860220  77.4763563  71.0939437  67.0593383  77.3419528  70.4855929
  67.3707506  77.7840392  71.8996155  55.6090396  81.1953493  78.8586810
  56.5293405  81.3732092  79.0526857  55.5739979  80.2509538  78.7066509
  44.8272561  76.3892086  67.7840085  44.5075345  75.5357395  67.4914459
  44.2805989  76.6040665  68.5398052  48.6052469  79.1054527  71.5009591
  48.8238478  80.0371635  71.5197625  49.0178242  78.7462502  72.2864395
  53.4780334  74.6787733  80.8912340  53.3777061  75.6282090  80.8224431
  53.2601876  74.3505972  80.0188410  44.6960821  80.0094998  69.7533206
  44.0024292  79.5948951  69.2403161  45.4433812  80.0515534  69.1566625
  53.3411604  78.1084872  79.7077402  52.8578686  78.9085232  79.9141291
  53.4272543  78.1192817  78.7544846  46.6097563  79.9413252  67.6299221
  46.5868252  80.0400939  66.6781104  46.9198200  80.7878402  67.9516387
  49.2684941  81.9989407  71.7445836  50.2228195  81.9673349  71.6775767
  49.0697465  81.5380030  72.5596062  49.8584323  80.5690523  74.3116633
  50.6777212  81.0634601  74.3351471  50.1321131  79.6522491  74.2834201
  65.4038014  73.6975415  68.4472869  65.9982505  73.4571151  67.7366177
  65.4764598  72.9782546  69.0746405  47.6235170  87.5409026  68.7616034
  47.4889638  86.7809427  68.1954032  47.2067232  88.2649926  68.2944822
  58.7594133  82.7245950  57.7692609  59.4629983  82.9295952  58.3850264
  58.0356782  83.2922712  58.0341692  67.7109087  77.0041616  67.2216290
  67.1508645  77.0734805  67.9947852  67.1052591  76.8282601  66.5015786
  50.7804296  88.4378343  68.9734476  50.6636680  89.3823776  68.8713166
  49.9596742  88.1351905  69.3620275  60.6680831  83.1628479  59.8191069
  61.5026434  82.7309677  59.6368544  60.5065173  82.9910493  60.7467963
  45.1119238  74.9028657  75.0108830  45.7578101  74.3927611  75.4996056
  44.9036389  75.6397338  75.5852256  57.6372630  81.9709504  80.5100971
  58.5063790  82.1450156  80.1487606  57.1579381  82.7903921  80.3876700
  51.8058810  89.0906605  72.1890405  52.7086057  89.1230215  72.5056900
  51.5796180  88.1607056  72.2036740  53.5612412  87.8437592  68.8500483
  52.6108043  87.8439453  68.7364855  53.8644898  87.0970326  68.3336518
  49.4516729  72.0496274  79.1083845  50.3148190  71.6933078  79.3187169
  48.8782139  71.7110168  79.7959249  69.2965106  93.6798130  69.9146246
  69.9343516  93.5604877  69.2109586  69.1785949  94.6278974  69.9734198
  66.1054812  93.6325558  69.8507770  65.7673323  93.5166623  68.9628305
  66.9744580  93.2316723  69.8308776  61.9641628  95.4861035  65.8404661
  61.4006493  95.3950971  65.0720949  61.8494023  94.6660939  66.3207154
  66.5874595  94.7860410  75.8093976  66.5763236  94.3913208  74.9374479
  66.7495234  94.0526482  76.4027747  59.5106060  96.9812226  68.6788882
  60.3027351  96.6403051  68.2635181  59.7502710  97.0907201  69.5991035
  67.5441186  99.1532002  61.1519126  66.8929166  99.7386083  60.7653140
  68.3385549  99.6838197  61.2114164  61.4696813  96.2421139  61.5506260
  62.2427690  95.6950126  61.4119136  61.8222212  97.1065389  61.7620722
  63.3081856  97.5697522  74.7573160  63.0171722  98.4743152  74.6419826
  63.9438840  97.6114049  75.4717229  64.2338063  94.9474370  71.3474519
  64.8301635  94.7230393  70.6331482  64.2913034  94.2059116  71.9499967
  63.8063091  92.4013805  59.1824710  64.0588612  91.8795327  58.4208173
  62.8687650  92.2379951  59.2851394  68.8506374  91.4049584  66.9899454
  69.6369463  90.9869007  66.6389871  69.1145078  92.3095676  67.1581102
  69.0216451  96.8422434  61.6888110  68.3862284  96.9157061  62.4009015
  68.6913858  97.4316033  61.0107190  74.2514801  91.3424817  67.8932432
  74.9839973  90.7724034  68.1270262  73.4954157  90.9546417  68.3338938
  63.5259380  94.3041911  61.3849085  63.4095638  93.6286815  62.0530170
  63.6361640  93.8174285  60.5681238  65.8690921  93.7652059  65.0895775
  65.5049128  93.2382680  65.8008696  66.7258037  93.3750528  64.9162260
  71.7740222  85.0546391  72.3527041  71.4423546  85.9241802  72.1288256
  71.1785835  84.7382675  73.0321071  65.5096408  88.7941958  60.0857123
  65.6770810  89.6622195  60.4527594  65.3193577  88.9569240  59.1618412
  68.2671741  97.2558937  71.7522953  67.9672464  98.1583976  71.6438761
  67.9222801  96.9891120  72.6044106  61.7184223  93.7072734  67.7859658
  60.7934719  93.5748948  67.9937350  61.9668636  94.4866953  68.2829600
  71.6668885  89.7741477  69.4320391  70.7585762  89.7056886  69.1379152
  71.6156481  90.2513422  70.2602216  65.4885629  91.2499616  61.0703790
  65.3685254  91.6956667  61.9089270  64.7938217  91.5984933  60.5117328
  59.0793034  93.3506008  68.6203447  59.2085415  93.6040486  69.5342859
  58.3990485  93.9433716  68.3008102  63.2492521 104.0203257  64.7193921
  63.1716551 104.9711083  64.7982402  62.6454165 103.6749130  65.3768847
  65.7409751  91.1931123  77.3755288  64.9643085  91.7525043  77.3658153
  66.3800314  91.6787906  77.8970158  73.5330531  87.9757916  71.2098265
  72.8904912  88.2690449  70.5638059  73.0285460  87.8610836  72.0151461
  71.1870695  91.7221089  61.8984124  72.0988551  91.9548476  61.7231822
  70.6780342  92.3058133  61.3359203  63.9956123  94.0016576  76.9373255
  64.7370807  94.5401620  76.6608079  63.2893108  94.6282865  77.0944807
  69.4711463  96.1445717  75.5345417  69.8794819  95.7028127  74.7900049
  68.7488724  95.5698344  75.7879609  65.8242533  91.0818324  72.9078974
  66.6703728  91.5057737  73.0513623  65.7641170  90.4251948  73.6017537
  69.7940277  96.7046907  69.2897705  69.1649140  96.8692622  68.5873773
  69.4065939  97.1188517  70.0608669  73.6729509  97.6401345  66.6442069
  72.9880547  98.0200247  66.0939103  73.7573359  98.2496672  67.3774017
  68.9741978  88.7422692  74.5660147  68.7302910  89.4964752  74.0294423
  69.2501909  89.1208039  75.4007394  70.9280441  95.2861304  73.2437413
  71.1397336  95.9293064  72.5671794  70.8810189  94.4523621  72.7759343
  68.5306670  87.8979125  70.1473985  67.6691149  88.1960378  70.4390722
  68.5569104  88.1149524  69.2155018  65.3468239  96.4421315  66.5547791
  65.8106585  96.7209018  65.7652413  65.0825037  95.5404760  66.3720881
  62.2392320  95.9892797  69.4927554  62.8093677  96.4180065  68.8545038
  62.8300432  95.7075382  70.1911739  64.2837125  92.5644468  63.3637356
  64.9861169  93.0165511  63.8311282  63.9517754  91.9228287  63.9917249
  62.7317487  91.1556224  77.7388565  62.1016147  91.8372505  77.9723962
  62.6253575  91.0439306  76.7941703  58.0262459  90.8228020  68.6654489
  57.2361513  91.0785549  68.1894600  58.5173707  91.6376358  68.7706530
  72.0426269  98.1633260  71.4159770  72.8643712  97.7613447  71.1342452
  72.0388672  98.0601494  72.3675886  59.9777205  91.1872600  65.6237966
  59.1808368  91.2991294  66.1421462  59.7502797  91.5259252  64.7578856
  65.8082872  97.7117303  73.5720481  65.8727305  98.1737710  74.4078652
  65.0993796  97.0814668  73.7002790  56.3100162  91.0758511  71.0969480
  56.5608201  91.9605521  71.3627056  56.8459711  90.8963112  70.3244572
  80.1332262  94.5072008  67.7644742  79.3795970  93.9379406  67.6088746
  80.2679803  94.4734673  68.7115376  65.5230890  99.3785410  63.4399461
  65.3876565 100.2236946  63.8684309  66.0640702  99.5804688  62.6765395
  62.0098230  85.4576990  80.1013816  61.6165175  84.9043189  80.7761460
  62.8264370  85.7687569  80.4920334  58.9760287  96.8960848  64.0127386
  59.4884808  97.6904099  64.1632951  59.6283000  96.1987139  63.9460987
  60.7855172 100.0126605  66.0950139  60.9621800 100.9344569  65.9071123
  61.5812005  99.6985024  66.5244519  64.9266190  86.8734869  77.6934073
  65.6675904  87.4742023  77.6138535  65.1584113  86.1312507  77.1352115
  60.0707529  92.0591237  75.9712302  59.9561044  91.1576494  76.2719401
  59.2152046  92.3054933  75.6197119  67.1499366 100.0008977  77.5699803
  66.7063220  99.2145356  77.2520707  67.8116580 100.1888127  76.9043694
  61.9086487 101.5304779  72.0960482  62.4593913 101.4021842  71.3237475
  61.0697963 101.8299668  71.7455374  69.2480604 100.2811777  75.5981204
  69.2299080 101.1020658  75.1061473  70.1700524 100.1565852  75.8231345
  65.7053658  97.7955906  76.4404713  66.2381995  97.0344195  76.2104021
  65.1767740  97.5029558  77.1828867  68.8723353  82.9015972  71.9698354
  68.5287623  83.7917614  71.8937465  69.2402316  82.7117630  71.1067939
  56.9409204  95.2249503  64.7886957  57.7784426  95.6346511  64.5720664
  57.1187472  94.2848945  64.7587150  68.8373636  92.8924583  60.4770789
  68.3220260  93.6629188  60.7159177  68.5650945  92.2189720  61.1003851
  66.4220747  87.7374284  65.5356028  65.5662344  87.3481135  65.3561667
  66.8347699  87.8166245  64.6755813  67.9519894  85.2720627  69.9347588
  67.4484689  85.2350763  69.1215393  68.2450501  86.1813370  69.9944244
  64.1962780  85.3559357  68.9413769  65.0615776  85.1602166  68.5819659
  64.2640289  85.1269709  69.8683126  73.8107910  95.6456938  62.4123963
  73.0337353  95.3068098  61.9679125  74.4899391  95.6509561  61.7378928
  68.6259939  90.7651676  62.3030571  68.3210075  91.0797825  63.1540714
  69.5790381  90.8433095  62.3457904  67.0706371  96.9241899  63.9523525
  66.5427733  96.1894658  63.6396762  66.5693874  97.7016575  63.7063493
  72.0499217  95.1190919  69.0690571  71.3922892  95.8090181  69.1570700
  72.8539616  95.5087351  69.4124557  61.8025099  87.5861565  66.3130136
  62.3768851  87.3636747  65.5803329  62.3896081  87.6550260  67.0658737
  70.8604676  93.4735292  67.1194513  71.3736558  94.1065284  67.6216222
  71.5105900  92.8736488  66.7537873  62.1294686  89.6166026  60.3326021
  61.2931998  89.9540713  60.6535296  61.9899456  89.4815006  59.3953158
  64.1047767  84.4602814  65.0405206  63.4512179  84.1451831  64.4161820
  64.0628241  83.8378554  65.7665029  65.2158971  94.7422109  56.9558498
  64.3086033  94.5111363  57.1549647  65.7130003  93.9459728  57.1432479
  68.1227050 103.4519616  59.8755184  67.4488749 103.7551313  60.4840142
  68.5092872 104.2548697  59.5260641  67.3385507  90.9484748  69.3652853
  66.4208068  91.1699695  69.2074541  67.7545650  91.0231058  68.5064561
  68.1220555  92.3476163  64.4955533  68.8692374  92.8597560  64.1862656
  68.3912144  92.0260216  65.3559927  66.3947205  94.8434704  61.4782488
  65.4858424  94.5593737  61.5754958  66.4242289  95.2633783  60.6185795
  71.6266472  98.4541293  65.2473655  71.1728799  97.6132203  65.3038846
  70.9960439  99.0902692  65.5848435  70.5699392  89.3833280  66.4774323
  69.8322149  88.8710666  66.8084565  70.8226165  88.9433661  65.6657600
  70.0699411 100.2917790  66.1823473  70.3622386 100.8522847  65.4635839
  70.5798032 100.5846351  66.9376633  70.6711019  82.1609532  67.0716092
  70.9769896  81.3006895  66.7842007  71.3963624  82.7527152  66.8715086
  56.9635375  92.5640218  65.4597690  56.7659775  91.9709579  64.7348757
  56.4082039  92.2592428  66.1773629  64.9432099  92.4563325  67.5792283
  64.9980709  91.5037161  67.5034760  64.1323301  92.6122764  68.0633582
  66.0923293  96.3843448  58.8170566  65.6542723  95.6679307  58.3576204
  66.8333733  96.6119562  58.2555658  62.8824459  91.0740384  65.3382662
  62.0692324  91.3734555  65.7447854  63.3783453  90.6796073  66.0557144
  65.0333037 101.0698141  67.2716927  64.9909215 101.2958988  66.3425459
  65.9495736 100.8361516  67.4202728  68.4798670  91.5382209  74.1697556
  68.8348058  91.7653682  75.0292022  69.1270802  91.8700586  73.5474811
  74.2096407  94.6600645  64.8746885  74.0714306  94.8502241  63.9468074
  73.8532626  95.4220028  65.3314936  62.3738534  88.6458740  70.9543897
  63.0137913  88.5047499  70.2566860  61.5416064  88.3593253  70.5782499
  74.2365787  96.7277172  69.8858156  74.6702294  96.6352461  70.7341210
  74.9497368  96.7034672  69.2478172  63.1498837  97.9461170  67.0678889
  63.9439436  97.4511490  66.8661464  62.4390530  97.4179033  66.7046595
  67.9693682 100.3279266  71.4191257  68.0230704 100.8970202  72.1868973
  67.1008463 100.4981151  71.0545294  59.4581601  92.0904252  63.1438642
  58.5279189  92.0288708  63.3608604  59.5539073  91.5680205  62.3475283
  59.3767150  88.6159065  65.7316884  59.6373967  89.5304398  65.6226044
  60.1984322  88.1483507  65.8813497  60.8492075  90.0296822  72.9015708
  61.5215129  89.8214184  72.2528357  60.0221862  89.8318908  72.4620941
  75.0981337  96.7700872  72.4191042  75.2917227  97.6746683  72.6650317
  74.9981955  96.3108291  73.2529627  66.7517647  86.6558763  74.9181369
  66.1045562  87.3548713  74.8245846  67.5218663  87.0894907  75.2857617
  70.1596445  96.9207615  77.9931922  70.0081952  96.6918167  77.0762006
  70.1501125  97.8778217  78.0063267  66.9281782  94.4939528  72.9778189
  67.8573842  94.6450687  72.8047156  66.5072812  94.5823549  72.1226835
  65.7270113  98.5190192  70.7476726  65.5881199  98.1508977  71.6202665
  64.9384710  99.0337832  70.5760684  66.3218265 103.6199289  62.0902263
  66.4970021 103.1487332  62.9047886  65.6351053 104.2465055  62.3183524
  67.2775329  97.8971795  68.1365564  66.9425161  97.8572565  69.0323214
  66.7779274  97.2316511  67.6635975  61.2519573  93.3039425  73.6618145
  61.1139370  92.5719664  74.2629684  62.1624496  93.2148325  73.3802333
  70.2134520  95.2427829  58.4102624  69.5963691  94.5174657  58.3135677
  69.7451009  96.0037190  58.0669698  63.8801873  93.0159384  73.1501825
  64.5901492  92.3752577  73.1088444  63.8371181  93.2672279  74.0728006
  71.8688652  99.9526738  76.0708404  71.8101198  99.2685958  75.4038987
  72.2708170 100.6945728  75.6189030  62.5930807  90.0024602  74.9697465
  62.0568164  89.5515341  75.6219061  62.0047516  90.1370511  74.2267929
  60.8879351 106.7688651  68.8642123  61.1275949 107.4007176  69.5421142
  60.0448547 106.4176692  69.1507482  62.0033066  89.4613254  57.5323928
  61.1262532  89.3402054  57.1686175  62.4790819  88.6699332  57.2802817
  71.8706059  97.9166322  74.3022384  70.9832838  97.5792243  74.4248783
  72.4404610  97.1849353  74.5391149  53.5235206  94.2490413  67.6265435
  54.2106246  93.9352143  67.0386451  53.3683335  95.1531778  67.3532687
  58.3269928  89.1380610  72.0550459  58.2428117  88.5306279  71.3200869
  57.5052635  89.6289628  72.0559955  65.4007213 102.5767774  71.2683627
  65.3277384 103.3822745  71.7802932  64.9584606 102.7759740  70.4431649
  65.1896992 101.8139544  64.7786449  64.4064514 102.3561224  64.8724673
  65.8889737 102.3313524  65.1780690  68.4993642  87.6234173  67.4220654
  68.9962342  86.8704136  67.1021724  67.7280624  87.6598490  66.8563863
  76.3523400  93.3274539  69.0638946  76.3413276  94.2099254  68.6932879
  75.4840779  92.9746090  68.8693483  67.8605896 102.4754608  73.4241786
  68.5733868 103.1102073  73.3517687  67.3695925 102.5718474  72.6081788
  69.5823423  96.3805861  64.9959078  68.6479702  96.5007323  64.8263782
  69.7600091  95.4778327  64.7319087  65.0828611  89.7651556  67.1492339
  64.7126399  89.2122597  67.8373244  65.5787703  89.1609690  66.5967339
  72.9695974  92.2223180  65.5309112  73.4356427  93.0551172  65.4569414
  73.4203475  91.7568161  66.2354370  62.9117810 100.2249051  74.2447357
  63.6127269 100.8585534  74.3976751  62.4412925 100.5663783  73.4842996
  71.0372205  98.5667001  62.5295264  71.3132049  98.4523596  63.4389138
  70.1676704  98.1684486  62.4907437  70.9412637  84.5903767  69.5700013
  70.0275717  84.8207994  69.7382220  71.3705739  84.6742211  70.4214045
  70.7119096  92.7793659  72.0699907  70.0590546  93.0269566  71.4152360
  71.0899475  91.9657797  71.7362384  67.6726269 102.8153352  66.1728077
  67.8548664 101.9975008  66.6355830  68.4959255 103.0321044  65.7352967
  68.0068435 101.7421537  63.4343126  68.5356201 101.2313992  62.8213288
  68.2696655 101.4264067  64.2988659  66.7606669  93.5213470  78.5565944
  66.0847306  93.4207599  79.2268319  67.5834302  93.3652684  79.0201941
  58.5085528  99.7585406  71.1778459  59.0938964  99.0129094  71.3106364
  58.3110366 100.0689363  72.0615123  61.3624183 102.7936654  66.1940902
  60.6934558 103.2782782  65.7104942  61.2237053 103.0405874  67.1084280
  53.1003182  92.3291007  69.8982902  53.1387282  91.7954597  70.6920021
  52.5943475  91.8026212  69.2793880  65.5029451 104.8280397  72.7923560
  66.0547759 104.9912019  73.5572645  65.8435645 105.4184835  72.1203585
  60.4793945  87.1755547  73.3945445  60.5435271  88.0370378  72.9822842
  60.4161065  86.5629549  72.6617803  59.9546217  89.2478680  77.0418479
  60.5818256  88.8655757  77.6556003  59.0974136  89.0292882  77.4074172
  70.3540326  99.6541655  78.6472215  70.8980230 100.2671613  78.1527169
  69.7727171 100.2121233  79.1639228  56.7311760  91.0555109  62.9736834
  57.0265201  90.1465787  62.9203888  55.8299796  91.0342848  62.6517836
  68.6397839 102.7762373  69.7787242  68.5148978 101.9752113  69.2698188
  69.2976930 103.2708566  69.2901212  60.2606007  89.1311105  68.9564382
  59.5392593  89.7447073  68.8171856  61.0499263  89.6668870  68.8781028
  70.7032747 100.5771393  71.4066792  69.7563083 100.4576744  71.3345119
  71.0515520  99.6893891  71.4893054  63.0632320  86.4665532  75.2305034
  63.5866722  86.7127828  75.9931344  62.8444654  87.2985567  74.8108172
  58.4599602  88.7369206  63.0976159  58.1312308  87.8566585  62.9151265
  58.8138972  88.6816875  63.9852548  67.7079180 100.3724109  67.6071145
  67.5604143  99.4440817  67.7878715  68.5332674 100.3944200  67.1228220
  61.5741425  89.0242176  63.4651637  61.9137497  89.5528098  62.7430245
  62.0213545  89.3622582  64.2410203  71.3113302 101.1952668  68.6936017
  72.2359850 100.9895529  68.5560468  71.1428606 100.9469069  69.6025359
  64.2684866  87.4079227  72.9154705  63.9281686  86.6087040  73.3175385
  63.5623872  87.7080938  72.3431538  64.9201337  84.4928539  71.3682028
  65.7427407  84.0189018  71.2460918  65.1639401  85.2719023  71.8680714
  63.5609572  87.5216798  61.6644929  64.2817934  87.8998051  61.1608646
  62.9374876  88.2405675  61.7679907  67.7040695  88.2261947  62.6003262
  67.9204309  89.1086585  62.2992090  67.2234762  87.8348160  61.8708904
  62.4439916  91.1847660  69.1774006  62.2984497  91.4987963  70.0698288
  61.9665120  91.8032560  68.6244905  64.3036299  88.1750208  69.2254896
  64.2897868  87.2791301  68.8887194  65.0208727  88.1820872  69.8593182
  66.1562430  88.6087548  71.2708023  65.8980208  89.5304619  71.2692354
  65.6247470  88.2117983  71.9608488  71.1008618 101.7138335  64.0498109
  71.2745496 101.1484758  63.2971961  71.5937510 102.5139230  63.8677599
  56.9185578  93.7253004  72.1161668  56.3739046  94.5012812  72.2481942
  57.7964928  94.0723809  71.9580789  63.7073195  87.0564588  64.4942466
  63.8289106  86.1281235  64.6933354  63.4175237  87.0703274  63.5820782
  66.5764385  84.7419499  67.6309186  66.5986082  84.8058832  66.6761165
  66.9932444  83.9024007  67.8249692  76.9548010  94.4774758  65.6688409
  77.3979156  93.7282084  65.2707532  76.0774520  94.4684895  65.2862140
  72.0883791 101.0305100  61.1495007  72.7834696 101.6511792  61.3682322
  72.4306941 100.1800451  61.4247385  57.7051600  92.8522901  75.0091824
  56.9633336  93.0005536  75.5956455  57.3844344  93.1131166  74.1458574
  73.9875214  98.4804805  62.6782338  74.5126538  98.8192078  61.9531658
  73.8997567  97.5451821  62.4945472  65.6495263 102.3938879  74.8072214
  65.9582389 102.1488026  75.6794914  66.4470745 102.5985517  74.3191085
  65.6715875 104.5476789  67.0377591  65.2320865 104.0553167  67.7310448
  66.4223992 104.0049756  66.7969666  58.1508214 100.7388329  67.0402219
  58.9766234 100.4392101  66.6600863  57.8002266  99.9695952  67.4892008
  63.1189747 100.0914798  69.1099893  62.4969756  99.4285503  68.8102121
  63.7894614 100.1175930  68.4273540  56.3516819  98.6574656  67.9991153
  55.5148727  98.2296830  67.8175154  56.3240464  98.8507099  68.9361944
  63.1914274  88.5696586  78.7032399  63.2402430  89.4458709  78.3210168
  63.7336789  88.0273979  78.1304042  73.6769120  99.1137709  77.9833536
  72.8864664  99.0961848  77.4438035  73.4402475  99.6526003  78.7382572
  73.7966995  95.9630175  75.2966264  73.8465000  95.7980183  76.2381787
  73.6880919  95.0957434  74.9064145  62.6803254  98.6418721  62.5858353
  62.8291374  99.3254185  61.9325026  63.4869697  98.6223811  63.1007809
  71.0870758  91.9461103  76.6125571  71.9880620  91.8067568  76.3209569
  71.1618732  92.1115558  77.5523748  65.4213563  89.3227958  75.4578757
  64.5516872  89.6161524  75.1861346  65.6573043  89.9068403  76.1786021
  75.2985192  98.3827117  75.5408286  75.0070000  98.7457097  76.3771747
  74.6857323  97.6694125  75.3621618  76.4980874  95.9479997  68.0610856
  77.3327766  96.3869801  68.2248416  76.6340003  95.4718650  67.2419102
  73.5472380  93.5059731  74.0088344  74.0226502  93.6987378  73.2007195
  72.6237946  93.5618917  73.7631728  60.4355887  94.6683899  63.5919422
  60.1901929  93.7646229  63.7899632  60.6051801  94.6701049  62.6498900
  68.1252597  85.5407575  72.9744178  68.6434541  86.2768602  72.6490666
  67.7707730  85.8471568  73.8090937  59.7051534  90.4012256  61.0905584
  59.0120779  90.4756611  60.4345620  59.4603286  89.6372600  61.6127101
  68.3765191  81.9607858  68.4945074  68.6566945  81.2931047  69.1205501
  69.1615798  82.1536953  67.9819738  66.1798659 101.1366851  60.0570101
  65.6072626 101.7557039  59.6040572  66.7531453 101.6866213  60.5910023
  72.2474049  90.3825492  72.2416649  73.1991472  90.4823589  72.2628873
  72.0777500  89.5903760  72.7514734  70.2688429  87.4681075  72.4276050
  69.6738361  87.7486088  71.7322539  69.9838125  87.9574976  73.1992791
  69.3995919 101.4204002  61.1878683  70.3326592 101.3549563  61.3911558
  69.3119132 102.2560268  60.7293216  72.0283936 100.7369872  58.1482630
  71.9497567 100.4029736  59.0418388  72.8493603 101.2291640  58.1474103
  74.7262127  93.6031611  71.3558949  74.6938447  92.6647612  71.5418633
  75.3362751  93.6815648  70.6224774  66.5645458  92.4727664  57.3986153
  67.5104563  92.3433872  57.4674571  66.1859703  91.7342326  57.8755581
  74.8756616  90.3942655  71.4017232  74.3595664  89.6101111  71.2147161
  75.7596564  90.0661371  71.5663752  72.5367342  84.1383670  67.3613045
  72.3392164  83.8298758  68.2456377  73.1467048  84.8645309  67.4910975
  80.5438677  94.6647618  70.4964986  81.2742065  94.4032906  71.0572689
  79.9345622  93.9276340  70.5367054  78.6253974  92.8055481  71.0939437
  77.8987138  92.6711446  70.4855929  78.2101261  93.1132309  71.8996155
  66.4484150  96.5245410  78.8586810  67.3687160  96.7024009  79.0526857
  66.4133733  95.5801456  78.7066509  64.7488375  90.3977641  57.3341038
  63.8419830  90.1010753  57.4103752  65.0264356  90.1007459  56.4675325
  55.6666315  91.7184004  67.7840085  55.3469100  90.8649312  67.4914459
  55.1199744  91.9332582  68.5398052  59.4446223  94.4346445  71.5009591
  59.6632233  95.3663553  71.5197625  59.8571997  94.0754419  72.2864395
  66.3650441  84.9414530  63.4885280  65.5551169  84.5961615  63.8640526
  67.0534858  84.6322074  64.0772891  68.2940989  84.0192577  65.1109576
  68.8472028  84.4388031  65.7699599  68.5311075  83.0928325  65.1532532
  64.3174088  90.0079651  80.8912340  64.2170815  90.9574008  80.8224431
  64.0995630  89.6797890  80.0188410  63.5187160  87.2564576  57.4753018
  64.3806324  87.5819474  57.7348835  63.7037504  86.4696072  56.9626083
  55.5354575  95.3386916  69.7533206  54.8418047  94.9240868  69.2403161
  56.2827566  95.3807452  69.1566625  71.6719796  86.1293102  64.6188241
  71.0918465  86.7877906  64.2366293  71.4055729  85.3070447  64.2075658
  70.1223363  85.5298160  66.8209561  70.6223141  85.6414695  66.0123880
  70.7658970  85.2259213  67.4610369  64.1805358  93.4376790  79.7077402
  63.6972440  94.2377150  79.9141291  64.2666297  93.4484735  78.7544846
  57.4491318  95.2705169  67.6299221  57.4262006  95.3692857  66.6781104
  57.7591954  96.1170320  67.9516387  60.1078696  97.3281324  71.7445836
  61.0621949  97.2965267  71.6775767  59.9091219  96.8671948  72.5596062
  60.6978078  95.8982440  74.3116633  61.5170967  96.3926519  74.3351471
  60.9714886  94.9814409  74.2834201  70.4544674  88.2893193  63.6744589
  69.5670529  88.5742843  63.4564784  70.8698663  88.1286956  62.8271866
  73.8059210  88.3139714  67.3898928  74.5819600  88.8036166  67.6623545
  73.0807344  88.7397768  67.8470798  76.2431769  89.0267333  68.4472869
  76.8376260  88.7863069  67.7366177  76.3158353  88.3074463  69.0746405
  58.4628925 102.8700944  68.7616034  58.3283393 102.1101345  68.1954032
  58.0460987 103.5941844  68.2944822  69.5987888  98.0537867  57.7692609
  70.3023738  98.2587870  58.3850264  68.8750536  98.6214629  58.0341692
  70.4285698  93.8047729  63.8894879  70.3720899  94.2616280  63.0502511
  70.9814040  93.0438413  63.7117722  74.2390504  89.5937460  64.7144998
  73.9827438  89.1934096  65.5453206  73.6143372  90.3081254  64.5895138
  78.5502842  92.3333534  67.2216290  77.9902400  92.4026723  67.9947852
  77.9446345  92.1574518  66.5015786  61.6198051 103.7670261  68.9734476
  61.5030435 104.7115693  68.8713166  60.7990497 103.4643822  69.3620275
  71.5074585  98.4920397  59.8191069  72.3420189  98.0601595  59.6368544
  71.3458928  98.3202410  60.7467963  71.1620477  94.9952510  61.1847408
  71.1069281  94.8296781  60.2435852  70.5366533  95.7028543  61.3409598
  55.9512992  90.2320574  75.0108830  56.5971856  89.7219528  75.4996056
  55.7430143  90.9689256  75.5852256  68.4766384  97.3001422  80.5100971
  69.3457544  97.4742074  80.1487606  67.9973136  98.1195839  80.3876700
  64.4716603  84.4960619  60.7632727  64.4595273  85.4402459  60.9200997
  65.3640025  84.3130764  60.4692188  62.6452565 104.4198523  72.1890405
  63.5479811 104.4522133  72.5056900  62.4189935 103.4898974  72.2036740
  64.4006167 103.1729509  68.8500483  63.4501798 103.1731371  68.7364855
  64.7038653 102.4262244  68.3336518  68.2868722  81.0903396  65.0178663
  67.5201118  80.5361882  65.1635346  68.6979427  81.1625264  65.8792815
  60.2910483  87.3788191  79.1083845  61.1541945  87.0224996  79.3187169
  59.7175894  87.0402086  79.7959249  80.1358860 109.0090048  69.9146246
  80.7737270 108.8896795  69.2109586  80.0179703 109.9570892  69.9734198
  76.9448566 108.9617476  69.8507770  76.6067078 108.8458540  68.9628305
  77.8138335 108.5608641  69.8308776  72.8035382 110.8152952  65.8404661
  72.2400247 110.7242889  65.0720949  72.6887777 109.9952857  66.3207154
  77.4268349 110.1152328  75.8093976  77.4156990 109.7205126  74.9374479
  77.5888989 109.3818400  76.4027747  70.3499814 112.3104144  68.6788882
  71.1421106 111.9694968  68.2635181  70.5896464 112.4199119  69.5991035
  78.3834941 114.4823920  61.1519126  77.7322921 115.0678000  60.7653140
  79.1779304 115.0130115  61.2114164  72.3090568 111.5713057  61.5506260
  73.0821444 111.0242044  61.4119136  72.6615967 112.4357306  61.7620722
  74.1475611 112.8989439  74.7573160  73.8565477 113.8035070  74.6419826
  74.7832595 112.9405967  75.4717229  75.0731817 110.2766288  71.3474519
  75.6695390 110.0522310  70.6331482  75.1306789 109.5351033  71.9499967
  74.6456846 107.7305723  59.1824710  74.8982366 107.2087244  58.4208173
  73.7081405 107.5671869  59.2851394  79.6900129 106.7341502  66.9899454
  80.4763218 106.3160925  66.6389871  79.9538833 107.6387594  67.1581102
  79.8610206 112.1714352  61.6888110  79.2256039 112.2448978  62.4009015
  79.5307612 112.7607951  61.0107190  85.0908556 106.6716735  67.8932432
  85.8233728 106.1015952  68.1270262  84.3347911 106.2838335  68.3338938
  74.3653135 109.6333829  61.3849085  74.2489393 108.9578732  62.0530170
  74.4755394 109.1466203  60.5681238  76.7084675 109.0943976  65.0895775
  76.3442883 108.5674597  65.8008696  77.5651791 108.7042445  64.9162260
  82.6133976 100.3838309  72.3527041  82.2817301 101.2533720  72.1288256
  82.0179590 100.0674593  73.0321071  76.3490162 104.1233876  60.0857123
  76.5164565 104.9914112  60.4527594  76.1587332 104.2861158  59.1618412
  79.1065496 112.5850855  71.7522953  78.8066219 113.4875894  71.6438761
  78.7616555 112.3183038  72.6044106  72.5577977 109.0364652  67.7859658
  71.6328474 108.9040866  67.9937350  72.8062390 109.8158871  68.2829600
  82.5062639 105.1033395  69.4320391  81.5979517 105.0348803  69.1379152
  82.4550235 105.5805340  70.2602216  76.3279383 106.5791533  61.0703790
  76.2079009 107.0248584  61.9089270  75.6331972 106.9276851  60.5117328
  69.9186788 108.6797925  68.6203447  70.0479169 108.9332404  69.5342859
  69.2384239 109.2725633  68.3008102  76.5803505 106.5223041  77.3755288
  75.8036839 107.0816961  77.3658153  77.2194068 107.0079824  77.8970158
  84.3724286 103.3049833  71.2098265  83.7298666 103.5982367  70.5638059
  83.8679214 103.1902754  72.0151461  82.0264449 107.0513007  61.8984124
  82.9382306 107.2840393  61.7231822  81.5174097 107.6350051  61.3359203
  74.8349878 109.3308494  76.9373255  75.5764562 109.8693538  76.6608079
  74.1286863 109.9574783  77.0944807  80.3105217 111.4737634  75.5345417
  80.7188573 111.0320045  74.7900049  79.5882479 110.8990262  75.7879609
  76.6636287 106.4110241  72.9078974  77.5097482 106.8349655  73.0513623
  76.6034925 105.7543866  73.6017537  80.6334032 112.0338825  69.2897705
  80.0042894 112.1984539  68.5873773  80.2459694 112.4480435  70.0608669
  79.8135733 104.0714610  74.5660147  79.5696664 104.8256670  74.0294423
  80.0895663 104.4499957  75.4007394  81.7674195 110.6153222  73.2437413
  81.9791091 111.2584982  72.5671794  81.7203944 109.7815538  72.7759343
  79.3700424 103.2271043  70.1473985  78.5084903 103.5252296  70.4390722
  79.3962859 103.4441441  69.2155018  76.1861994 111.7713233  66.5547791
  76.6500339 112.0500936  65.7652413  75.9218792 110.8696678  66.3720881
  73.0786075 111.3184715  69.4927554  73.6487432 111.7471983  68.8545038
  73.6694187 111.0367299  70.1911739  75.1230880 107.8936386  63.3637356
  75.8254923 108.3457429  63.8311282  74.7911508 107.2520204  63.9917249
  73.5711241 106.4848142  77.7388565  72.9409902 107.1664423  77.9723962
  73.4647329 106.3731224  76.7941703  68.8656214 106.1519938  68.6654489
  68.0755268 106.4077467  68.1894600  69.3567461 106.9668276  68.7706530
  82.8820023 113.4925177  71.4159770  83.7037467 113.0905365  71.1342452
  82.8782426 113.3893412  72.3675886  70.8170959 106.5164517  65.6237966
  70.0202122 106.6283212  66.1421462  70.5896551 106.8551170  64.7578856
  76.6476627 113.0409221  73.5720481  76.7121059 113.5029628  74.4078652
  75.9387551 112.4106586  73.7002790  67.1493917 106.4050429  71.0969480
  67.4001955 107.2897439  71.3627056  67.6853465 106.2255030  70.3244572
  76.3624644 114.7077328  63.4399461  76.2270319 115.5528864  63.8684309
  76.9034457 114.9096606  62.6765395  72.8491984 100.7868908  80.1013816
  72.4558930 100.2335107  80.7761460  73.6658124 101.0979486  80.4920334
  69.8154042 112.2252766  64.0127386  70.3278562 113.0196016  64.1632951
  70.4676755 111.5279057  63.9460987  71.6248926 115.3418522  66.0950139
  71.8015555 116.2636487  65.9071123  72.4205760 115.0276942  66.5244519
  75.7659945 102.2026787  77.6934073  76.5069658 102.8033940  77.6138535
  75.9977868 101.4604425  77.1352115  70.9101283 107.3883154  75.9712302
  70.7954798 106.4868412  76.2719401  70.0545801 107.6346851  75.6197119
  77.9893121 115.3300895  77.5699803  77.5456975 114.5437273  77.2520707
  78.6510334 115.5180045  76.9043694  72.7480242 116.8596696  72.0960482
  73.2987667 116.7313760  71.3237475  71.9091718 117.1591585  71.7455374
  76.5447413 113.1247824  76.4404713  77.0775750 112.3636112  76.2104021
  76.0161494 112.8321476  77.1828867  79.7117108  98.2307890  71.9698354
  79.3681377  99.1209532  71.8937465  80.0796071  98.0409548  71.1067939
  67.7802959 110.5541420  64.7886957  68.6178181 110.9638429  64.5720664
  67.9581226 109.6140863  64.7587150  79.6767391 108.2216501  60.4770789
  79.1614014 108.9921106  60.7159177  79.4044699 107.5481637  61.1003851
  77.2614502 103.0666202  65.5356028  76.4056098 102.6773052  65.3561667
  77.6741453 103.1458163  64.6755813  78.7913648 100.6012545  69.9347588
  78.2878444 100.5642680  69.1215393  79.0844255 101.5105288  69.9944244
  75.0356534 100.6851275  68.9413769  75.9009531 100.4894084  68.5819659
  75.1034043 100.4561627  69.8683126  84.6501665 110.9748856  62.4123963
  83.8731108 110.6360015  61.9679125  85.3293146 110.9801479  61.7378928
  79.4653694 106.0943593  62.3030571  79.1603829 106.4089742  63.1540714
  80.4184136 106.1725013  62.3457904  77.9100126 112.2533817  63.9523525
  77.3821487 111.5186576  63.6396762  77.4087628 113.0308493  63.7063493
  82.8892972 110.4482837  69.0690571  82.2316646 111.1382098  69.1570700
  83.6933371 110.8379269  69.4124557  72.6418853 102.9153483  66.3130136
  73.2162605 102.6928664  65.5803329  73.2289836 102.9842177  67.0658737
  81.6998430 108.8027210  67.1194513  82.2130312 109.4357202  67.6216222
  82.3499654 108.2028405  66.7537873  72.9688440 104.9457944  60.3326021
  72.1325753 105.2832630  60.6535296  72.8293210 104.8106924  59.3953158
  74.9441521  99.7894732  65.0405206  74.2905933  99.4743749  64.4161820
  74.9021995  99.1670472  65.7665029  76.0552726 110.0714027  56.9558498
  75.1479788 109.8403280  57.1549647  76.5523758 109.2751646  57.1432479
  78.1779261 106.2776665  69.3652853  77.2601823 106.4991612  69.2074541
  78.5939405 106.3522976  68.5064561  78.9614309 107.6768081  64.4955533
  79.7086128 108.1889478  64.1862656  79.2305899 107.3552134  65.3559927
  77.2340959 110.1726622  61.4782488  76.3252179 109.8885654  61.5754958
  77.2636043 110.5925700  60.6185795  82.4660227 113.7833211  65.2473655
  82.0122554 112.9424121  65.3038846  81.8354193 114.4194610  65.5848435
  81.4093146 104.7125197  66.4774323  80.6715903 104.2002583  66.8084565
  81.6619920 104.2725579  65.6657600  81.5104774  97.4901449  67.0716092
  81.8163650  96.6298813  66.7842007  82.2357378  98.0819069  66.8715086
  67.8029130 107.8932136  65.4597690  67.6053529 107.3001496  64.7348757
  67.2475794 107.5884346  66.1773629  75.7825853 107.7855242  67.5792283
  75.8374463 106.8329079  67.5034760  74.9717055 107.9414681  68.0633582
  76.9317047 111.7135365  58.8170566  76.4936477 110.9971224  58.3576204
  77.6727488 111.9411480  58.2555658  73.7218213 106.4032302  65.3382662
  72.9086079 106.7026473  65.7447854  74.2177207 106.0087991  66.0557144
  75.8726791 116.3990059  67.2716927  75.8302970 116.6250905  66.3425459
  76.7889490 116.1653434  67.4202728  79.3192425 106.8674126  74.1697556
  79.6741813 107.0945600  75.0292022  79.9664556 107.1992503  73.5474811
  85.0490162 109.9892562  64.8746885  84.9108060 110.1794158  63.9468074
  84.6926381 110.7511945  65.3314936  73.2132288 103.9750658  70.9543897
  73.8531667 103.8339417  70.2566860  72.3809819 103.6885171  70.5782499
  73.9892592 113.2753088  67.0678889  74.7833190 112.7803408  66.8661464
  73.2784284 112.7470951  66.7046595  78.8087436 115.6571183  71.4191257
  78.8624459 116.2262120  72.1868973  77.9402218 115.8273069  71.0545294
  70.2975355 107.4196170  63.1438642  69.3672943 107.3580625  63.3608604
  70.3932827 106.8972122  62.3475283  70.2160904 103.9450983  65.7316884
  70.4767722 104.8596316  65.6226044  71.0378077 103.4775425  65.8813497
  71.6885830 105.3588740  72.9015708  72.3608883 105.1506102  72.2528357
  70.8615616 105.1610826  72.4620941  77.5911402 101.9850681  74.9181369
  76.9439317 102.6840630  74.8245846  78.3612417 102.4186825  75.2857617
  80.9990200 112.2499533  77.9931922  80.8475706 112.0210084  77.0762006
  80.9894879 113.2070134  78.0063267  77.7675536 109.8231446  72.9778189
  78.6967596 109.9742605  72.8047156  77.3466566 109.9115466  72.1226835
  76.5663868 113.8482110  70.7476726  76.4274954 113.4800894  71.6202665
  75.7778464 114.3629749  70.5760684  78.1169083 113.2263713  68.1365564
  77.7818916 113.1864483  69.0323214  77.6173029 112.5608429  67.6635975
  72.0913327 108.6331343  73.6618145  71.9533125 107.9011581  74.2629684
  73.0018250 108.5440243  73.3802333  81.0528275 110.5719747  58.4102624
  80.4357445 109.8466575  58.3135677  80.5844763 111.3329107  58.0669698
  74.7195628 108.3451302  73.1501825  75.4295246 107.7044494  73.1088444
  74.6764936 108.5964197  74.0728006  73.4324562 105.3316520  74.9697465
  72.8961919 104.8807258  75.6219061  72.8441270 105.4662429  74.2267929
  72.8426821 104.7905171  57.5323928  71.9656287 104.6693972  57.1686175
  73.3184574 103.9991250  57.2802817  82.7099814 113.2458239  74.3022384
  81.8226592 112.9084161  74.4248783  83.2798365 112.5141270  74.5391149
  64.3628961 109.5782331  67.6265435  65.0500001 109.2644061  67.0386451
  64.2077089 110.4823696  67.3532687  69.1663683 104.4672528  72.0550459
  69.0821872 103.8598197  71.3200869  68.3446389 104.9581546  72.0559955
  76.0290747 117.1431462  64.7786449  75.2458269 117.6853142  64.8724673
  76.7283492 117.6605441  65.1780690  79.3387397 102.9526091  67.4220654
  79.8356096 102.1996053  67.1021724  78.5674378 102.9890408  66.8563863
  87.1917154 108.6566457  69.0638946  87.1807030 109.5391172  68.6932879
  86.3234534 108.3038007  68.8693483  80.4217177 111.7097778  64.9959078
  79.4873456 111.8299241  64.8263782  80.5993846 110.8070245  64.7319087
  75.9222366 105.0943474  67.1492339  75.5520153 104.5414514  67.8373244
  76.4181458 104.4901608  66.5967339  83.8089729 107.5515098  65.5309112
  84.2750181 108.3843089  65.4569414  84.2597229 107.0860079  66.2354370
  73.7511564 115.5540969  74.2447357  74.4521024 116.1877452  74.3976751
  73.2806679 115.8955701  73.4842996  81.8765960 113.8958919  62.5295264
  82.1525804 113.7815513  63.4389138  81.0070459 113.4976404  62.4907437
  81.7806392  99.9195685  69.5700013  80.8669471 100.1499911  69.7382220
  82.2099493 100.0034129  70.4214045  81.5512850 108.1085577  72.0699907
  80.8984300 108.3561484  71.4152360  81.9293230 107.2949715  71.7362384
  77.6000423 108.8505388  78.5565944  76.9241060 108.7499517  79.2268319
  78.4228057 108.6944601  79.0201941  69.3479282 115.0877324  71.1778459
  69.9332719 114.3421012  71.3106364  69.1504121 115.3981281  72.0615123
  72.2017937 118.1228572  66.1940902  71.5328313 118.6074699  65.7104942
  72.0630807 118.3697792  67.1084280  63.9396937 107.6582924  69.8982902
  63.9781036 107.1246515  70.6920021  63.4337230 107.1318130  69.2793880
  71.3187699 102.5047465  73.3945445  71.3829026 103.3662296  72.9822842
  71.2554819 101.8921467  72.6617803  70.7939972 104.5770597  77.0418479
  71.4212011 104.1947675  77.6556003  69.9367891 104.3584799  77.4074172
  67.5705514 106.3847027  62.9736834  67.8658956 105.4757705  62.9203888
  66.6693550 106.3634766  62.6517836  71.0999761 104.4603023  68.9564382
  70.3786347 105.0738991  68.8171856  71.8893017 104.9960788  68.8781028
  73.9026075 101.7957450  75.2305034  74.4260477 102.0419746  75.9931344
  73.6838408 102.6277484  74.8108172  69.2993356 104.0661124  63.0976159
  68.9706062 103.1858503  62.9151265  69.6532727 104.0108793  63.9852548
  78.5472935 115.7016027  67.6071145  78.3997897 114.7732734  67.7878715
  79.3726428 115.7236118  67.1228220  72.4135179 104.3534094  63.4651637
  72.7531252 104.8820015  62.7430245  72.8607300 104.6914500  64.2410203
  75.1078620 102.7371145  72.9154705  74.7675440 101.9378958  73.3175385
  74.4017626 103.0372856  72.3431538  75.7595092  99.8220457  71.3682028
  76.5821161  99.3480935  71.2460918  76.0033155 100.6010941  71.8680714
  74.4003326 102.8508716  61.6644929  75.1211689 103.2289968  61.1608646
  73.7768630 103.5697592  61.7679907  78.5434449 103.5553865  62.6003262
  78.7598064 104.4378502  62.2992090  78.0628516 103.1640078  61.8708904
  73.2833671 106.5139578  69.1774006  73.1378251 106.8279881  70.0698288
  72.8058874 107.1324478  68.6244905  75.1430053 103.5042126  69.2254896
  75.1291622 102.6083219  68.8887194  75.8602482 103.5112789  69.8593182
  76.9956184 103.9379466  71.2708023  76.7373962 104.8596537  71.2692354
  76.4641225 103.5409900  71.9608488  67.7579333 109.0544922  72.1161668
  67.2132801 109.8304730  72.2481942  68.6358683 109.4015727  71.9580789
  74.5466949 102.3856506  64.4942466  74.6682861 101.4573152  64.6933354
  74.2568992 102.3995192  63.5820782  77.4158140 100.0711416  67.6309186
  77.4379837 100.1350750  66.6761165  77.8326199  99.2315925  67.8249692
  87.7941764 109.8066676  65.6688409  88.2372910 109.0574001  65.2707532
  86.9168274 109.7976812  65.2862140  68.5445355 108.1814818  75.0091824
  67.8027091 108.3297454  75.5956455  68.2238099 108.4423084  74.1458574
  68.9901968 116.0680247  67.0402219  69.8159988 115.7684019  66.6600863
  68.6396020 115.2987870  67.4892008  73.9583501 115.4206715  69.1099893
  73.3363511 114.7577420  68.8102121  74.6288368 115.4467847  68.4273540
  67.1910573 113.9866574  67.9991153  66.3542482 113.5588748  67.8175154
  67.1634219 114.1799017  68.9361944  74.0308029 103.8988503  78.7032399
  74.0796184 104.7750626  78.3210168  74.5730543 103.3565896  78.1304042
  84.6360750 111.2922093  75.2966264  84.6858755 111.1272100  76.2381787
  84.5274673 110.4249352  74.9064145  73.5197008 113.9710639  62.5858353
  73.6685129 114.6546103  61.9325026  74.3263452 113.9515729  63.1007809
  81.9264512 107.2753021  76.6125571  82.8274375 107.1359486  76.3209569
  82.0012487 107.4407476  77.5523748  76.2607317 104.6519876  75.4578757
  75.3910627 104.9453442  75.1861346  76.4966798 105.2360321  76.1786021
  84.3866135 108.8351649  74.0088344  84.8620256 109.0279295  73.2007195
  83.4631700 108.8910835  73.7631728  71.2749641 109.9975816  63.5919422
  71.0295683 109.0938146  63.7899632  71.4445556 109.9992967  62.6498900
  78.9646351 100.8699493  72.9744178  79.4828295 101.6060520  72.6490666
  78.6101484 101.1763486  73.8090937  70.5445289 105.7304174  61.0905584
  69.8514534 105.8048529  60.4345620  70.2997041 104.9664518  61.6127101
  79.2158945  97.2899775  68.4945074  79.4960699  96.6222964  69.1205501
  80.0009552  97.4828871  67.9819738  77.0192414 116.4658769  60.0570101
  76.4466381 117.0848956  59.6040572  77.5925208 117.0158131  60.5910023
  83.0867804 105.7117409  72.2416649  84.0385227 105.8115507  72.2628873
  82.9171254 104.9195678  72.7514734  81.1082183 102.7972992  72.4276050
  80.5132115 103.0778005  71.7322539  80.8231880 103.2866893  73.1992791
  85.5655882 108.9323529  71.3558949  85.5332202 107.9939530  71.5418633
  86.1756505 109.0107566  70.6224774  77.4039212 107.8019582  57.3986153
  78.3498317 107.6725790  57.4674571  77.0253457 107.0634244  57.8755581
  85.7150370 105.7234572  71.4017232  85.1989419 104.9393029  71.2147161
  86.5990319 105.3953289  71.5663752  83.3761097  99.4675588  67.3613045
  83.1785918  99.1590676  68.2456377  83.9860803 100.1937227  67.4910975
  89.4647729 108.1347398  71.0939437  88.7380892 108.0003363  70.4855929
  89.0495015 108.4424227  71.8996155  77.2877905 111.8537328  78.8586810
  78.2080914 112.0315927  79.0526857  77.2527488 110.9093373  78.7066509
  75.5882130 105.7269558  57.3341038  74.6813585 105.4302671  57.4103752
  75.8658111 105.4299376  56.4675325  66.5060070 107.0475922  67.7840085
  66.1862854 106.1941230  67.4914459  65.9593498 107.2624500  68.5398052
  70.2839977 109.7638363  71.5009591  70.5025987 110.6955471  71.5197625
  70.6965751 109.4046337  72.2864395  77.2044195 100.2706448  63.4885280
  76.3944924  99.9253533  63.8640526  77.8928612  99.9613992  64.0772891
  79.1334744  99.3484495  65.1109576  79.6865782  99.7679948  65.7699599
  79.3704830  98.4220243  65.1532532  75.1567843 105.3371568  80.8912340
  75.0564570 106.2865925  80.8224431  74.9389385 105.0089807  80.0188410
  74.3580914 102.5856494  57.4753018  75.2200078 102.9111392  57.7348835
  74.5431258 101.7987989  56.9626083  66.3748330 110.6678833  69.7533206
  65.6811801 110.2532786  69.2403161  67.1221321 110.7099370  69.1566625
  82.5113551 101.4585020  64.6188241  81.9312220 102.1169824  64.2366293
  82.2449483 100.6362365  64.2075658  80.9617117 100.8590078  66.8209561
  81.4616895 100.9706612  66.0123880  81.6052725 100.5551131  67.4610369
  75.0199113 108.7668707  79.7077402  74.5366195 109.5669067  79.9141291
  75.1060052 108.7776652  78.7544846  68.2885072 110.5997087  67.6299221
  68.2655761 110.6984774  66.6781104  68.5985709 111.4462238  67.9516387
  70.9472450 112.6573242  71.7445836  71.9015704 112.6257184  71.6775767
  70.7484974 112.1963866  72.5596062  71.5371832 111.2274358  74.3116633
  72.3564721 111.7218437  74.3351471  71.8108640 110.3106326  74.2834201
  81.2938429 103.6185110  63.6744589  80.4064284 103.9034761  63.4564784
  81.7092418 103.4578874  62.8271866  84.6452965 103.6431631  67.3898928
  85.4213355 104.1328084  67.6623545  83.9201099 104.0689686  67.8470798
  87.0825523 104.3559251  68.4472869  87.6770014 104.1154987  67.7366177
  87.1552107 103.6366381  69.0746405  80.4381642 113.3829785  57.7692609
  81.1417492 113.5879788  58.3850264  79.7144291 113.9506547  58.0341692
  81.2679452 109.1339646  63.8894879  81.2114654 109.5908198  63.0502511
  81.8207795 108.3730331  63.7117722  85.0784258 104.9229378  64.7144998
  84.8221193 104.5226014  65.5453206  84.4537126 105.6373172  64.5895138
  89.3896596 107.6625451  67.2216290  88.8296154 107.7318641  67.9947852
  88.7840100 107.4866436  66.5015786  82.3468340 113.8212314  59.8191069
  83.1813943 113.3893513  59.6368544  82.1852682 113.6494328  60.7467963
  82.0014232 110.3244428  61.1847408  81.9463036 110.1588699  60.2435852
  81.3760287 111.0320460  61.3409598  66.7906747 105.5612492  75.0108830
  67.4365610 105.0511446  75.4996056  66.5823898 106.2981174  75.5852256
  75.3110357  99.8252537  60.7632727  75.2989027 100.7694376  60.9200997
  76.2033779  99.6422682  60.4692188  73.4846319 119.7490440  72.1890405
  74.3873566 119.7814051  72.5056900  73.2583689 118.8190891  72.2036740
  75.2399921 118.5021427  68.8500483  74.2895552 118.5023289  68.7364855
  75.5432407 117.7554162  68.3336518  79.1262477  96.4195313  65.0178663
  78.3594872  95.8653800  65.1635346  79.5373182  96.4917182  65.8792815
  71.1304238 102.7080109  79.1083845  71.9935699 102.3516914  79.3187169
  70.5569648 102.3694004  79.7959249  25.9390089   9.3692582  56.6391552
  26.5768499   9.2499329  55.9354892  25.8210932  10.3173426  56.6979504
  22.7479795   9.3220010  56.5753077  22.4098307   9.2061075  55.6873612
  23.6169563   8.9211175  56.5554083  18.6066611  11.1755486  52.5649968
  18.0431476  11.0845423  51.7966256  18.4919006  10.3555391  53.0452460
  23.2299578  10.4754862  62.5339282  23.2188219  10.0807660  61.6619786
  23.3920218   9.7420934  63.1273054  16.1531043  12.6706678  55.4034188
  16.9452335  12.3297503  54.9880488  16.3927693  12.7801653  56.3236342
  24.1866170  14.8426454  47.8764433  23.5354149  15.4280535  47.4898447
  24.9810532  15.3732649  47.9359470  18.1121797  11.9315591  48.2751567
  18.8852673  11.3844578  48.1364443  18.4647196  12.7959841  48.4866029
  19.9506839  13.2591974  61.4818466  19.6596705  14.1637604  61.3665133
  20.5863824  13.3008501  62.1962536  20.8763046  10.6368822  58.0719826
  21.4726618  10.4124844  57.3576789  20.9338018   9.8953568  58.6745274
  20.4488075   8.0908257  45.9070017  20.7013595   7.5689779  45.1453480
  19.5112634   7.9274403  46.0096701  25.4931357   7.0944036  53.7144760
  26.2794447   6.6763459  53.3635177  25.7570062   7.9990128  53.8826409
  25.6641435  12.5316886  48.4133417  25.0287268  12.6051513  49.1254322
  25.3338841  13.1210485  47.7352496  30.8939785   7.0319269  54.6177739
  31.6264957   6.4618486  54.8515568  30.1379140   6.6440869  55.0584244
  20.1684363   9.9936363  48.1094392  20.0520621   9.3181267  48.7775476
  20.2786623   9.5068737  47.2926545  22.5115904   9.4546510  51.8141081
  22.1474112   8.9277131  52.5254003  23.3683020   9.0644979  51.6407567
  28.4165205   0.7440843  59.0772347  28.0848530   1.6136254  58.8533562
  27.8210818   0.4277127  59.7566378  22.1521391   4.4836410  46.8102430
  22.3195794   5.3516647  47.1772901  21.9618560   4.6463692  45.8863719
  24.9096724  12.9453389  58.4768260  24.6097448  13.8478428  58.3684067
  24.5647784  12.6785572  59.3289413  18.3609206   9.3967186  54.5104965
  17.4359702   9.2643400  54.7182656  18.6093619  10.1761405  55.0074907
  28.3093868   5.4635929  56.1565697  27.4010746   5.3951338  55.8624458
  28.2581464   5.9407874  56.9847523  22.1310612   6.9394068  47.7949097
  22.0110237   7.3851118  48.6334577  21.4363201   7.2879385  47.2362635
  15.7218017   9.0400459  55.3448754  15.8510398   9.2934938  56.2588165
  15.0415468   9.6328167  55.0253409  19.8917504  19.7097709  51.4439228
  19.8141534  20.6605534  51.5227708  19.2879148  19.3643582  52.1014154
  22.3834734   6.8825575  64.1000595  21.6068068   7.4419495  64.0903459
  23.0225297   7.3682358  64.6215465  30.1755515   3.6652368  57.9343571
  29.5329895   3.9584901  57.2883366  29.6710443   3.5505288  58.7396768
  27.8295678   7.4115541  48.6229431  28.7413534   7.6442928  48.4477128
  27.3205325   7.9952585  48.0604509  20.6381106   9.6911028  63.6618562
  21.3795791  10.2296072  63.3853385  19.9318092  10.3177317  63.8190114
  26.1136446  11.8340169  62.2590723  26.5219802  11.3922579  61.5145356
  25.3913707  11.2592796  62.5124916  22.4667516   6.7712775  59.6324280
  23.3128711   7.1952189  59.7758929  22.4066154   6.1146400  60.3262843
  26.4365261  12.3941359  56.0143012  25.8074123  12.5587073  55.3119080
  26.0490923  12.8082969  56.7853976  30.3154493  13.3295797  53.3687376
  29.6305531  13.7094698  52.8184409  30.3998342  13.9391124  54.1019324
  25.6166961   4.4317144  61.2905454  25.3727893   5.1859204  60.7539729
  25.8926892   4.8102491  62.1252701  27.5705424  10.9755756  59.9682719
  27.7822319  11.6187516  59.2917100  27.5235172  10.1418073  59.5004649
  25.1731653   3.5873577  56.8719292  24.3116132   3.8854830  57.1636029
  25.1994088   3.8043976  55.9400324  21.9893222  12.1315767  53.2793097
  22.4531568  12.4103470  52.4897720  21.7250021  11.2299212  53.0966188
  18.8817304  11.6787249  56.2172860  19.4518661  12.1074517  55.5790345
  19.4725415  11.3969834  56.9157046  20.9262109   8.2538920  50.0882662
  21.6286152   8.7059963  50.5556589  20.5942737   7.6122739  50.7162555
  19.3742470   6.8450676  64.4633872  18.7441131   7.5266957  64.6969269
  19.2678558   6.7333758  63.5187010  28.6851252  13.8527712  58.1405077
  29.5068696  13.4507899  57.8587758  28.6813655  13.7495946  59.0921193
  16.6202188   6.8767052  52.3483273  15.8233351   6.9885746  52.8666768
  16.3927780   7.2153704  51.4824163  22.4507856  13.4011755  60.2965787
  22.5152288  13.8632162  61.1323959  21.7418779  12.7709120  60.4248097
  36.7757245  10.1966460  54.4890048  36.0220954   9.6273858  54.3334053
  36.9104786  10.1629125  55.4360683  22.1655873  15.0679862  50.1644768
  22.0301548  15.9131398  50.5929615  22.7065686  15.2699140  49.4010701
  15.6185271  12.5855300  50.7372693  16.1309791  13.3798551  50.8878257
  16.2707983  11.8881591  50.6706294  17.4280155  15.7021057  52.8195446
  17.6046784  16.6239021  52.6316430  18.2236989  15.3879476  53.2489826
  21.5691174   2.5629321  64.4179379  22.3100887   3.1636474  64.3383842
  21.8009097   1.8206959  63.8597422  16.7132512   7.7485689  62.6957609
  16.5986027   6.8470946  62.9964708  15.8577030   7.9949385  62.3442426
  23.7924350  15.6903429  64.2945110  23.3488204  14.9039807  63.9766014
  24.4541563  15.8782579  63.6289000  18.5511471  17.2199230  58.8205788
  19.1018896  17.0916294  58.0482782  17.7122947  17.5194119  58.4700681
  25.8905588  15.9706229  62.3226511  25.8724063  16.7915110  61.8306780
  26.8125508  15.8460304  62.5476652  22.3478642  13.4850358  63.1650019
  22.8806979  12.7238646  62.9349327  21.8192723  13.1924010  63.9074174
  13.5834187  10.9143955  51.5132263  14.4209409  11.3240963  51.2965971
  13.7612455   9.9743397  51.4832457  25.4798619   8.5819035  47.2016096
  24.9645243   9.3523640  47.4404484  25.2075928   7.9084171  47.8249158
  23.0645730   3.4268736  52.2601335  22.2087327   3.0375587  52.0806973
  23.4772682   3.5060697  51.4001120  24.5944877   0.9615079  56.6592894
  24.0909673   0.9245215  55.8460700  24.8875484   1.8707822  56.7189551
  30.4532894  11.3351390  49.1369270  29.6762336  10.9962549  48.6924432
  31.1324375  11.3404013  48.4624235  25.2684923   6.4546127  49.0275877
  24.9635058   6.7692277  49.8786020  26.2215365   6.5327547  49.0703210
  23.7131354  12.6136351  50.6768831  23.1852716  11.8789110  50.3642069
  23.2118857  13.3911027  50.4308800  28.6924200  10.8085371  55.7935878
  28.0347875  11.4984633  55.8816006  29.4964600  11.1981803  56.1369864
  27.5029659   9.1629744  53.8439819  28.0161541   9.7959736  54.3461529
  28.1530883   8.5630939  53.4783179  18.7719669   5.3060478  47.0571328
  17.9356981   5.6435165  47.3780603  18.6324439   5.1709458  46.1198465
  21.8583955  10.4316561  43.6803804  20.9511016  10.2005814  43.8794953
  22.3554987   9.6354180  43.8677786  24.7652034  19.1414068  46.6000490
  24.0913732  19.4445765  47.2085448  25.1517856  19.9443149  46.2505948
  23.9810490   6.6379199  56.0898160  23.0633052   6.8594146  55.9319848
  24.3970634   6.7125510  55.2309867  24.7645538   8.0370615  51.2200840
  25.5117357   8.5492012  50.9107962  25.0337127   7.7154668  52.0805234
  23.0372188  10.5329156  48.2027794  22.1283407  10.2488189  48.3000264
  23.0667272  10.9528234  47.3431101  28.2691456  14.1435745  51.9718962
  27.8153783  13.3026655  52.0284152  27.6385422  14.7797144  52.3093742
  27.2124375   5.0727731  53.2019629  26.4747132   4.5605118  53.5329872
  27.4651149   4.6328113  52.3902906  26.7124395  15.9812242  52.9068780
  27.0047369  16.5417299  52.1881146  27.2223015  16.2740803  53.6621939
  13.6060358   8.2534670  52.1842997  13.4084758   7.6604031  51.4594063
  13.0507022   7.9486880  52.9018935  21.5857082   8.1457776  54.3037590
  21.6405692   7.1931613  54.2280066  20.7748284   8.3017216  54.7878888
  22.7348276  12.0737900  45.5415873  22.2967706  11.3573758  45.0821510
  23.4758717  12.3014014  44.9800964  19.5249442   6.7634836  52.0627969
  18.7117308   7.0629007  52.4693161  20.0208436   6.3690525  52.7802451
  21.6758020  16.7592593  53.9962233  21.6334199  16.9853439  53.0670765
  22.5920719  16.5255968  54.1448034  25.1223654   7.2276661  60.8942863
  25.4773041   7.4548134  61.7537328  25.7695785   7.5595037  60.2720118
  30.8521391  10.3495097  51.5992192  30.7139289  10.5396693  50.6713381
  30.4957609  11.1114479  52.0560243  30.8790770  12.4171624  56.6103463
  31.3127277  12.3246913  57.4586517  31.5922351  12.3929124  55.9723479
  19.7923821  13.6355622  53.7924196  20.5864419  13.1405942  53.5906771
  19.0815513  13.1073485  53.4291902  24.6118665  16.0173718  58.1436564
  24.6655687  16.5864654  58.9114280  23.7433447  16.1875603  57.7790601
  16.1006584   7.7798704  49.8683949  15.1704172   7.7183159  50.0853911
  16.1964056   7.2574657  49.0720590  17.4917059   5.7191274  59.6261015
  18.1640112   5.5108636  58.9773664  16.6646845   5.5213360  59.1866247
  31.7406320  12.4595324  59.1436348  31.9342210  13.3641135  59.3895623
  31.6406938  12.0002743  59.9774933  23.3942631   2.3453215  61.6426676
  22.7470546   3.0443164  61.5491152  24.1643646   2.7789359  62.0102924
  26.8021429  12.6102067  64.7177229  26.6506935  12.3812619  63.8007313
  26.7926108  13.5672668  64.7308574  23.5706765  10.1833980  59.7023496
  24.4998825  10.3345139  59.5292463  23.1497795  10.2718001  58.8472142
  22.3695097  14.2084644  57.4722033  22.2306182  13.8403429  58.3447971
  21.5809693  14.7232284  57.3005991  22.9643249  19.3093741  48.8147570
  23.1395004  18.8381784  49.6293192  22.2776037  19.9359507  49.0428830
  23.9200312  13.5866247  54.8610871  23.5850144  13.5467017  55.7568521
  23.4204258  12.9210963  54.3881281  17.8944556   8.9933877  60.3863452
  17.7564354   8.2614116  60.9874991  18.8049479   8.9042777  60.1047640
  26.8559504  10.9322281  45.1347931  26.2388674  10.2069109  45.0380983
  26.3875992  11.6931641  44.7915005  20.5226856   8.7053836  59.8747132
  21.2326475   8.0647028  59.8333750  20.4796165   8.9566731  60.7973312
  28.5113635  15.6421190  62.7953711  28.4526181  14.9580410  62.1284294
  28.9133154  16.3840180  62.3434337  19.2355790   5.6919054  61.6942771
  18.6993147   5.2409793  62.3464368  18.6472499   5.8264963  60.9513236
  17.5304334  22.4583103  55.5887430  17.7700932  23.0901628  56.2666448
  16.6873530  22.1071143  55.8752789  18.6458049   5.1507705  44.2569235
  17.7687516   5.0296506  43.8931482  19.1215802   4.3593784  44.0048124
  28.5131042  13.6060773  61.0267691  27.6257821  13.2686695  61.1494089
  29.0829593  12.8743805  61.2636456  10.1660190   9.9384865  54.3510742
  10.8531229   9.6246595  53.7631757  10.0108318  10.8426230  54.0777993
  22.0432196  18.2662226  57.9928934  21.9702367  19.0717197  58.5048238
  21.6009589  18.4654192  57.1676955  21.8321975  17.5033996  51.5031755
  21.0489497  18.0455676  51.5969980  22.5314721  18.0207975  51.9025997
  25.1418626   3.3128625  54.1465961  25.6387325   2.5598588  53.8267031
  24.3705607   3.3492942  53.5809170  32.9948383   9.0168991  55.7884252
  32.9838259   9.8993706  55.4178185  32.1265762   8.6640542  55.5938789
  24.5030879  18.1649060  60.1487092  25.2158852  18.7996525  60.0762994
  24.0120908  18.2612926  59.3327094  26.2248406  12.0700313  51.7204384
  25.2904685  12.1901775  51.5509088  26.4025075  11.1672779  51.4564394
  21.7253594   5.4546008  53.8737645  21.3551382   4.9017049  54.5618551
  22.2212687   4.8504142  53.3212645  29.6120958   7.9117632  52.2554418
  30.0781410   8.7445623  52.1814721  30.0628458   7.4462613  52.9599677
  19.5542793  15.9143503  60.9692663  20.2552252  16.5479986  61.1222058
  19.0837908  16.2558235  60.2088303  27.6797189  14.2561453  49.2540570
  27.9557033  14.1418048  50.1634444  26.8101687  13.8578938  49.2152743
  27.5837620   0.2798219  56.2945320  26.6700700   0.5102446  56.4627527
  28.0130722   0.3636663  57.1459352  27.3544079   8.4688111  58.7945214
  26.7015529   8.7164018  58.1397666  27.7324459   7.6552249  58.4607691
  24.3151253  18.5047804  52.8973384  24.4973647  17.6869460  53.3601136
  25.1384239  18.7215496  52.4598274  24.6493418  17.4315989  50.1588432
  25.1781185  16.9208444  49.5458595  24.9121638  17.1158519  51.0233965
  23.4031652   9.2107922  65.2811251  22.7272289   9.1102051  65.9513626
  24.2259286   9.0547136  65.7447248  15.1510511  15.4479858  57.9023766
  15.7363948  14.7023546  58.0351670  14.9535349  15.7583815  58.7860430
  18.0049166  18.4831106  52.9186208  17.3359541  18.9677233  52.4350248
  17.8662036  18.7300326  53.8329587  22.1454435  20.5174849  59.5168867
  22.6972743  20.6806471  60.2817952  22.4860628  21.1079287  58.8448892
  26.9965309  15.3436107  65.3717521  27.5405213  15.9566065  64.8772476
  26.4152154  15.9015685  65.8884534  25.2822822  18.4656825  56.5032549
  25.1573961  17.6646565  55.9943494  25.9401913  18.9603018  56.0146519
  27.3457730  16.2665845  58.1312099  26.3988066  16.1471196  58.0590426
  27.6940504  15.3788343  58.2138360  24.3504164  16.0618561  54.3316451
  24.2029126  15.1335269  54.5124021  25.1757657  16.0838652  53.8473526
  18.2166408   4.7136628  50.1896943  18.5562481   5.2422549  49.4675552
  18.6638528   5.0517034  50.9655510  27.9538286  16.8847120  55.4181324
  28.8784833  16.6789981  55.2805775  27.7853589  16.6363521  56.3270665
  20.2034555   3.2111250  48.3890236  20.9242918   3.5892503  47.8853953
  19.5799859   3.9300127  48.4925214  24.3465678   3.9156399  49.3248568
  24.5629292   4.7981037  49.0237397  23.8659745   3.5242612  48.5954210
  19.0864899   6.8742112  55.9019313  18.9409480   7.1882415  56.7943595
  18.6090103   7.4927012  55.3490212  20.9461282   3.8644660  55.9500203
  20.9322851   2.9685753  55.6132501  21.6633710   3.8715324  56.5838489
  22.7987413   4.2982000  57.9953330  22.5405191   5.2199071  57.9937660
  22.2672453   3.9012435  58.6853794  27.7433602  17.4032787  50.7743415
  27.9170479  16.8379210  50.0217268  28.2362493  18.2033682  50.5922905
  13.5610562   9.4147456  58.8406974  13.0164030  10.1907264  58.9727249
  14.4389911   9.7618261  58.6826096  33.5972993  10.1669210  52.3933715
  34.0404139   9.4176535  51.9952838  32.7199503  10.1579347  52.0107447
  28.7308774  16.7199552  47.8740314  29.4259679  17.3406244  48.0927628
  29.0731924  15.8694903  48.1492692  14.3476583   8.5417353  61.7337131
  13.6058319   8.6899988  62.3201761  14.0269328   8.8025618  60.8703880
  30.6300197  14.1699257  49.4027644  31.1551521  14.5086530  48.6776964
  30.5422550  13.2346273  49.2190779  22.2920246  18.0833331  61.5317521
  22.6007373  17.8382478  62.4040221  23.0895728  18.2879969  61.0436391
  22.3140858  20.2371241  53.7622898  21.8745848  19.7447619  54.4555754
  23.0648975  19.6944208  53.5214973  14.7933197  16.4282781  53.7647526
  15.6191217  16.1286553  53.3846169  14.4427249  15.6590404  54.2137314
  19.7614730  15.7809250  55.8345199  19.1394740  15.1179955  55.5347427
  20.4319597  15.8070381  55.1518847  12.9941802  14.3469108  54.7236459
  12.1573710  13.9191282  54.5420461  12.9665448  14.5401551  55.6607250
  19.8339258   4.2591038  65.4277705  19.8827413   5.1353160  65.0455475
  20.3761772   3.7168431  64.8549349  30.3194103  14.8032161  64.7078842
  29.5289647  14.7856300  64.1683342  30.0827458  15.3420455  65.4627879
  30.4391978  11.6524627  62.0211571  30.4889983  11.4874635  62.9627094
  30.3305902  10.7851886  61.6309452  19.3228237  14.3313173  49.3103660
  19.4716358  15.0148637  48.6570333  20.1294681  14.3118263  49.8253116
  27.7295741   7.6355555  63.3370878  28.6305604   7.4962020  63.0454875
  27.8043715   7.8010010  64.2769055  22.0638546   5.0122410  62.1824064
  21.1941856   5.3055976  61.9106653  22.2998027   5.5962855  62.9031328
  31.9410175  14.0721569  62.2653592  31.6494984  14.4351549  63.1017053
  31.3282307  13.3588577  62.0866925  33.1405858  11.6374449  54.7856163
  33.9752749  12.0764253  54.9493723  33.2764986  11.1613102  53.9664408
  30.1897364   9.1954183  60.7333650  30.6651485   9.3881830  59.9252502
  29.2662929   9.2513369  60.4877034  17.0780870  10.3578351  50.3164729
  16.8326912   9.4540681  50.5144939  17.2476785  10.3595501  49.3744207
  24.7677580   1.2302027  59.6989484  25.2859524   1.9663054  59.3735973
  24.4132713   1.5366020  60.5336243  22.8223643  16.8261303  46.7815407
  22.2497610  17.4451491  46.3285879  23.3956436  17.3760665  47.3155329
  28.8899033   6.0719943  58.9661956  29.8416455   6.1718041  58.9874180
  28.7202483   5.2798212  59.4760040  26.9113412   3.1575527  59.1521357
  26.3163344   3.4380539  58.4567846  26.6263109   3.6469428  59.9238098
  26.0420902  17.1098454  47.9123990  26.9751576  17.0444015  48.1156865
  25.9544115  17.9454720  47.4538522  28.6708919  16.4264324  44.8727937
  28.5922551  16.0924187  45.7663695  29.4918586  16.9186092  44.8719409
  31.3687110   9.2926063  58.0804256  31.3363430   8.3542064  58.2663940
  31.9787734   9.3710100  57.3470081  23.2070441   8.1622116  44.1231460
  24.1529546   8.0328324  44.1919878  22.8284686   7.4236778  44.6000888
  31.5181599   6.0837107  58.1262539  31.0020647   5.2995563  57.9392468
  32.4021547   5.7555823  58.2909058  29.1792326  -0.1721878  54.0858352
  28.9817147  -0.4806790  54.9701684  29.7892031   0.5539761  54.2156281
  37.1863660  10.3542070  57.2210293  37.9167049  10.0927358  57.7817996
  36.5770606   9.6170792  57.2612360  35.2678957   8.4949933  57.8184744
  34.5412121   8.3605898  57.2101235  34.8526244   8.8026761  58.6241462
  23.0909134  12.2139862  65.5832117  24.0112143  12.3918461  65.7772163
  23.0558717  11.2695908  65.4311816  21.3913358   6.0872093  44.0586345
  20.4844814   5.7905205  44.1349059  21.6689339   5.7901911  43.1920631
  16.0871206  10.1240897  58.2254898  16.3057216  11.0558005  58.2442932
  16.4996980   9.7648871  59.0109702  20.9599072   5.6974103  67.6157647
  20.8595799   6.6468460  67.5469738  20.7420614   5.3692342  66.7433717
  12.1779559  11.0281367  56.4778513  11.4843030  10.6135320  55.9648467
  12.9252550  11.0701904  55.8811932  28.3144779   1.8187554  51.3433547
  27.7343449   2.4772358  50.9611600  28.0480712   0.9964899  50.9320965
  26.7648346   1.2192612  53.5454868  27.2648124   1.3309146  52.7369186
  27.4083954   0.9153665  54.1855676  20.8230342   9.1271242  66.4322708
  20.3397423   9.9271602  66.6386598  20.9091281   9.1379186  65.4790152
  14.0916301  10.9599621  54.3544528  14.0686989  11.0587308  53.4026411
  14.4016938  11.8064772  54.6761694  16.7503679  13.0175776  58.4691142
  17.7046933  12.9859719  58.4021074  16.5516203  12.5566400  59.2841368
  17.3403061  11.5876892  61.0361940  18.1595950  12.0820971  61.0596777
  17.6139869  10.6708860  61.0079507  27.0969657   3.9787645  50.3989895
  26.2095513   4.2637295  50.1810090  27.5123647   3.8181408  49.5517172
  30.4484194   4.0034166  54.1144235  31.2244584   4.4930618  54.3868852
  29.7232328   4.4292220  54.5716104  32.8856752   4.7161785  55.1718175
  33.4801243   4.4757521  54.4611484  32.9583336   3.9968915  55.7991712
  15.1053908  18.5595396  55.4861340  14.9708376  17.7995797  54.9199338
  14.6885970  19.2836296  55.0190129  26.2412871  13.7432319  44.4937915
  26.9448721  13.9482322  45.1095571  25.5175520  14.3109081  44.7586999
  27.0710681   9.4942181  50.6140186  27.0145883   9.9510732  49.7747818
  27.6239024   8.7332865  50.4363028  30.8815487   5.2831912  51.4390305
  30.6252421   4.8828548  52.2698513  30.2568355   5.9975706  51.3140444
  35.1927825   8.0227986  53.9461597  34.6327383   8.0921175  54.7193159
  34.5871328   7.8468970  53.2261093  18.2623034  19.4564713  55.6979783
  18.1455418  20.4010145  55.5958473  17.4415480  19.1538274  56.0865582
  28.1499568  14.1814848  46.5436375  28.9845172  13.7496047  46.3613850
  27.9883911  14.0096862  47.4713270  27.8045461  10.6846962  47.9092715
  27.7494264  10.5191233  46.9681159  27.1791516  11.3922995  48.0654904
  25.1191368  12.9895874  67.2346278  25.9882527  13.1636526  66.8732912
  24.6398119  13.8090290  67.1122007  19.2877548  20.1092975  58.9135711
  20.1904795  20.1416585  59.2302206  19.0614918  19.1793426  58.9282047
  21.0431150  18.8623961  55.5745790  20.0926781  18.8625823  55.4610162
  21.3463636  18.1156696  55.0581824  36.7783843  24.6984500  56.6391552
  37.4162253  24.5791247  55.9354892  36.6604686  25.6465344  56.6979504
  33.5873550  24.6511928  56.5753077  33.2492061  24.5352992  55.6873612
  34.4563318  24.2503093  56.5554083  29.4460365  26.5047404  52.5649968
  28.8825231  26.4137341  51.7966256  29.3312760  25.6847309  53.0452460
  34.0693333  25.8046779  62.5339282  34.0581973  25.4099578  61.6619786
  34.2313972  25.0712852  63.1273054  26.9924797  27.9998596  55.4034188
  27.7846089  27.6589420  54.9880488  27.2321448  28.1093571  56.3236342
  28.9515551  27.2607509  48.2751567  29.7246427  26.7136496  48.1364443
  29.3040950  28.1251758  48.4866029  30.7900594  28.5883891  61.4818466
  30.4990460  29.4929522  61.3665133  31.4257578  28.6300419  62.1962536
  31.7156801  25.9660740  58.0719826  32.3120373  25.7416762  57.3576789
  31.7731772  25.2245485  58.6745274  31.2881829  23.4200175  45.9070017
  31.5407350  22.8981696  45.1453480  30.3506388  23.2566320  46.0096701
  36.3325112  22.4235953  53.7144760  37.1188201  22.0055377  53.3635177
  36.5963816  23.3282046  53.8826409  31.0078118  25.3228281  48.1094392
  30.8914376  24.6473184  48.7775476  31.1180378  24.8360655  47.2926545
  33.3509659  24.7838428  51.8141081  32.9867866  24.2569049  52.5254003
  34.2076775  24.3936897  51.6407567  39.2558959  16.0732761  59.0772347
  38.9242284  16.9428172  58.8533562  38.6604573  15.7569045  59.7566378
  32.9915146  19.8128328  46.8102430  33.1589548  20.6808564  47.1772901
  32.8012315  19.9755610  45.8863719  35.7490479  28.2745307  58.4768260
  35.4491202  29.1770346  58.3684067  35.4041538  28.0077490  59.3289413
  29.2002960  24.7259104  54.5104965  28.2753457  24.5935318  54.7182656
  29.4487374  25.5053323  55.0074907  39.1487623  20.7927847  56.1565697
  38.2404500  20.7243255  55.8624458  39.0975219  21.2699792  56.9847523
  32.9704367  22.2685985  47.7949097  32.8503992  22.7143036  48.6334577
  32.2756955  22.6171303  47.2362635  26.5611771  24.3692377  55.3448754
  26.6904153  24.6226856  56.2588165  25.8809223  24.9620085  55.0253409
  33.2228489  22.2117492  64.1000595  32.4461823  22.7711413  64.0903459
  33.8619052  22.6974275  64.6215465  41.0149269  18.9944285  57.9343571
  40.3723649  19.2876818  57.2883366  40.5104198  18.8797206  58.7396768
  38.6689433  22.7407458  48.6229431  39.5807289  22.9734845  48.4477128
  38.1599080  23.3244503  48.0604509  31.4774861  25.0202946  63.6618562
  32.2189545  25.5587990  63.3853385  30.7711846  25.6469235  63.8190114
  36.9530200  27.1632086  62.2590723  37.3613556  26.7214497  61.5145356
  36.2307462  26.5884714  62.5124916  33.3061271  22.1004693  59.6324280
  34.1522466  22.5244107  59.7758929  33.2459908  21.4438317  60.3262843
  36.4560716  19.7609061  61.2905454  36.2121648  20.5151122  60.7539729
  36.7320646  20.1394409  62.1252701  38.4099179  26.3047674  59.9682719
  38.6216074  26.9479434  59.2917100  38.3628927  25.4709990  59.5004649
  36.0125408  18.9165494  56.8719292  35.1509887  19.2146748  57.1636029
  36.0387842  19.1335893  55.9400324  32.8286977  27.4607685  53.2793097
  33.2925323  27.7395388  52.4897720  32.5643775  26.5591130  53.0966188
  29.7211058  27.0079167  56.2172860  30.2912415  27.4366435  55.5790345
  30.3119170  26.7261751  56.9157046  31.7655863  23.5830837  50.0882662
  32.4679906  24.0351881  50.5556589  31.4336492  22.9414656  50.7162555
  30.2136225  22.1742594  64.4633872  29.5834885  22.8558875  64.6969269
  30.1072312  22.0625676  63.5187010  25.5081197  21.8414390  55.3899796
  24.7180251  22.0971919  54.9139907  25.9992444  22.6562728  55.4951836
  27.4595942  22.2058969  52.3483273  26.6627106  22.3177664  52.8666768
  27.2321535  22.5445622  51.4824163  33.2901610  28.7303673  60.2965787
  33.3546043  29.1924080  61.1323959  32.5812534  28.1001037  60.4248097
  23.7918900  22.0944881  57.8214787  24.0426938  22.9791890  58.0872363
  24.3278448  21.9149482  57.0489879  29.4916967  16.4763360  66.8259123
  29.0983913  15.9229558  67.5006767  30.3083108  16.7873938  67.2165640
  26.4579025  27.9147218  50.7372693  26.9703546  28.7090468  50.8878257
  27.1101738  27.2173509  50.6706294  28.2673910  31.0312974  52.8195446
  28.4440538  31.9530939  52.6316430  29.0630743  30.7171394  53.2489826
  32.4084928  17.8921239  64.4179379  33.1494642  18.4928392  64.3383842
  32.6402851  17.1498877  63.8597422  27.5526266  23.0777606  62.6957609
  27.4379781  22.1762863  62.9964708  26.6970784  23.3241303  62.3442426
  34.6318104  31.0195347  64.2945110  34.1881958  30.2331725  63.9766014
  35.2935318  31.2074497  63.6289000  29.3905225  32.5491148  58.8205788
  29.9412650  32.4208211  58.0482782  28.5516701  32.8486037  58.4700681
  33.1872396  28.8142276  63.1650019  33.7200733  28.0530564  62.9349327
  32.6586477  28.5215928  63.9074174  36.3542091  13.9202342  58.6943661
  36.0106361  14.8103984  58.6182772  36.7221054  13.7304000  57.8313246
  24.4227942  26.2435872  51.5132263  25.2603164  26.6532881  51.2965971
  24.6006210  25.3035315  51.4832457  36.3192374  23.9110953  47.2016096
  35.8038997  24.6815558  47.4404484  36.0469682  23.2376089  47.8249158
  33.9039485  18.7560654  52.2601335  33.0481081  18.3667504  52.0806973
  34.3166437  18.8352615  51.4001120  35.4338632  16.2906997  56.6592894
  34.9303427  16.2537132  55.8460700  35.7269238  17.1999740  56.7189551
  31.6781517  16.3745727  55.6659076  32.5434514  16.1788535  55.3064965
  31.7459026  16.1456079  56.5928433  36.1078677  21.7838045  49.0275877
  35.8028813  22.0984194  49.8786020  37.0609119  21.8619465  49.0703210
  29.2843837  18.6047935  53.0375443  29.8587588  18.3823116  52.3048636
  29.8714819  18.6736629  53.7904044  38.3423414  24.4921662  53.8439819
  38.8555296  25.1251653  54.3461529  38.9924638  23.8922857  53.4783179
  29.6113424  20.6352396  47.0571328  28.7750736  20.9727082  47.3780603
  29.4718193  20.5001376  46.1198465  31.5866504  15.4789184  51.7650512
  30.9330917  15.1638201  51.1407127  31.5446978  14.8564924  52.4910335
  32.6977709  25.7608479  43.6803804  31.7904771  25.5297732  43.8794953
  33.1948741  24.9646098  43.8677786  34.8204245  21.9671117  56.0898160
  33.9026806  22.1886064  55.9319848  35.2364388  22.0417428  55.2309867
  35.6039292  23.3662533  51.2200840  36.3511111  23.8783930  50.9107962
  35.8730882  23.0446586  52.0805234  38.0518130  20.4019649  53.2019629
  37.3140886  19.8897035  53.5329872  38.3044903  19.9620031  52.3902906
  38.1529757  13.1795901  53.7961399  38.4588634  12.3193265  53.5087314
  38.8782362  13.7713521  53.5960393  24.4454113  23.5826588  52.1842997
  24.2478513  22.9895948  51.4594063  23.8900777  23.2778798  52.9018935
  32.4250837  23.4749694  54.3037590  32.4799446  22.5223531  54.2280066
  31.6142039  23.6309133  54.7878888  30.3643197  22.0926754  52.0627969
  29.5511062  22.3920924  52.4693161  30.8602191  21.6982443  52.7802451
  35.9617408  22.5568578  60.8942863  36.3166796  22.7840052  61.7537328
  36.6089539  22.8886955  60.2720118  29.8557271  19.6645109  57.6789204
  30.4956651  19.5233869  56.9812167  29.0234802  19.3779623  57.3027806
  30.6317575  28.9647540  53.7924196  31.4258174  28.4697860  53.5906771
  29.9209268  28.4365403  53.4291902  26.9400339  23.1090622  49.8683949
  26.0097927  23.0475077  50.0853911  27.0357811  22.5866574  49.0720590
  26.8585888  19.6345434  52.4562190  27.1192705  20.5490768  52.3471351
  27.6803060  19.1669877  52.6058803  28.3310813  21.0483192  59.6261015
  29.0033866  20.8400554  58.9773664  27.5040600  20.8505278  59.1866247
  34.2336385  17.6745132  61.6426676  33.5864300  18.3735082  61.5491152
  35.0037400  18.1081276  62.0102924  37.6415183  27.9393985  64.7177229
  37.4900689  27.7104536  63.8007313  37.6319862  28.8964586  64.7308574
  34.4100519  25.5125897  59.7023496  35.3392579  25.6637057  59.5292463
  33.9891549  25.6009918  58.8472142  33.2088851  29.5376562  57.4722033
  33.0699937  29.1695346  58.3447971  32.4203447  30.0524201  57.3005991
  34.7594066  28.9158165  54.8610871  34.4243899  28.8758934  55.7568521
  34.2598012  28.2502880  54.3881281  28.7338310  24.3225795  60.3863452
  28.5958108  23.5906033  60.9874991  29.6443234  24.2334695  60.1047640
  31.3620611  24.0345754  59.8747132  32.0720230  23.3938946  59.8333750
  31.3189919  24.2858649  60.7973312  30.0749545  21.0210972  61.6942771
  29.5386902  20.5701710  62.3464368  29.4866253  21.1556881  60.9513236
  29.4851804  20.4799623  44.2569235  28.6081270  20.3588424  43.8931482
  29.9609557  19.6885701  44.0048124  21.0053944  25.2676783  54.3510742
  21.6924984  24.9538513  53.7631757  20.8502073  26.1718148  54.0777993
  25.8088666  20.1566979  58.7795766  25.7246855  19.5492649  58.0446176
  24.9871373  20.6475998  58.7805262  35.9812380  18.6420543  54.1465961
  36.4781080  17.8890505  53.8267031  35.2099362  18.6784860  53.5809170
  37.0642161  27.3992230  51.7204384  36.1298439  27.5193693  51.5509088
  37.2418829  26.4964697  51.4564394  32.5647349  20.7837926  53.8737645
  32.1945136  20.2308966  54.5618551  33.0606441  20.1796059  53.3212645
  30.3936547  31.2435421  60.9692663  31.0946007  31.8771904  61.1222058
  29.9231662  31.5850153  60.2088303  38.4231375  15.6090136  56.2945320
  37.5094455  15.8394363  56.4627527  38.8524476  15.6928581  57.1459352
  38.1937833  23.7980028  58.7945214  37.5409284  24.0455936  58.1397666
  38.5718213  22.9844167  58.4607691  34.2425406  24.5399840  65.2811251
  33.5666043  24.4393969  65.9513626  35.0653040  24.3839053  65.7447248
  25.9904265  30.7771776  57.9023766  26.5757702  30.0315464  58.0351670
  25.7929104  31.0875733  58.7860430  20.5821920  23.3477376  56.6228209
  20.6206020  22.8140967  57.4165327  20.0762213  22.8212582  56.0039186
  27.9612682  18.1941917  60.1190751  28.0254009  19.0556748  59.7068149
  27.8979803  17.5815918  59.3863110  27.4364955  20.2665049  63.7663786
  28.0636994  19.8842127  64.3801310  26.5792874  20.0479251  64.1319478
  37.8359064  30.6728024  65.3717521  38.3798968  31.2857983  64.8772476
  37.2545908  31.2307603  65.8884534  24.2130498  22.0741478  49.6982141
  24.5083939  21.1652157  49.6449194  23.3118534  22.0529218  49.3763143
  27.7424745  20.1497475  55.6809689  27.0211331  20.7633443  55.5417162
  28.5318001  20.6855240  55.6026335  30.5451058  17.4851901  61.9550341
  31.0685460  17.7314198  62.7176650  30.3263392  18.3171936  61.5353478
  25.9418339  19.7555576  49.8221466  25.6131045  18.8752955  49.6396572
  26.2957710  19.7003245  50.7097855  29.0560162  20.0428546  50.1896943
  29.3956235  20.5714467  49.4675552  29.5032283  20.3808952  50.9655510
  31.7503603  18.4265597  59.6400011  31.4100424  17.6273410  60.0420691
  31.0442610  18.7267307  59.0676845  32.4020075  15.5114909  58.0927334
  33.2246144  15.0375387  57.9706225  32.6458139  16.2905393  58.5926021
  31.0428310  18.5403167  48.3890236  31.7636672  18.9184420  47.8853953
  30.4193614  19.2592044  48.4925214  35.1859433  19.2448316  49.3248568
  35.4023047  20.1272954  49.0237397  34.7053500  18.8534530  48.5954210
  29.9258654  22.2034030  55.9019313  29.7803235  22.5174333  56.7943595
  29.4483858  22.8218930  55.3490212  31.7855037  19.1936578  55.9500203
  31.7716606  18.2977671  55.6132501  32.5027465  19.2007241  56.5838489
  33.6381167  19.6273918  57.9953330  33.3798945  20.5490988  57.9937660
  33.1066208  19.2304352  58.6853794  24.4004316  24.7439374  58.8406974
  23.8557784  25.5199182  58.9727249  25.2783666  25.0910179  58.6826096
  31.1891933  18.0750958  51.2187773  31.3107844  17.1467604  51.4178660
  30.8993975  18.0889644  50.3066088  34.0583123  15.7605868  54.3554493
  34.0804820  15.8245201  53.4006472  34.4751182  14.9210377  54.5494999
  25.1870338  23.8709270  61.7337131  24.4452074  24.0191906  62.3201761
  24.8663082  24.1317536  60.8703880  25.6326952  31.7574699  53.7647526
  26.4584972  31.4578471  53.3846169  25.2821004  30.9882321  54.2137314
  30.6008485  31.1101167  55.8345199  29.9788494  30.4471872  55.5347427
  31.2713352  31.1362299  55.1518847  23.8335557  29.6761025  54.7236459
  22.9967465  29.2483200  54.5420461  23.8059202  29.8693469  55.6607250
  30.6733012  19.5882955  65.4277705  30.7221168  20.4645078  65.0455475
  31.2155526  19.0460348  64.8549349  41.1587858  30.1324079  64.7078842
  40.3683402  30.1148217  64.1683342  40.9221213  30.6712372  65.4627879
  41.2785733  26.9816545  62.0211571  41.3283738  26.8166552  62.9627094
  41.1699656  26.1143804  61.6309452  30.1621992  29.6605091  49.3103660
  30.3110112  30.3440555  48.6570333  30.9688435  29.6410181  49.8253116
  38.5689495  22.9647473  63.3370878  39.4699358  22.8253938  63.0454875
  38.6437470  23.1301928  64.2769055  32.9032301  20.3414328  62.1824064
  32.0335610  20.6347894  61.9106653  33.1391781  20.9254773  62.9031328
  42.7803930  29.4013486  62.2653592  42.4888738  29.7643467  63.1017053
  42.1676061  28.6880495  62.0866925  41.0291118  24.5246101  60.7333650
  41.5045240  24.7173747  59.9252502  40.1056683  24.5805287  60.4877034
  27.9174625  25.6870268  50.3164729  27.6720667  24.7832598  50.5144939
  28.0870539  25.6887419  49.3744207  35.6071335  16.5593945  59.6989484
  36.1253278  17.2954972  59.3735973  35.2526467  16.8657938  60.5336243
  27.1870272  21.4198626  47.8150890  26.4939517  21.4942981  47.1590926
  26.9422024  20.6558969  48.3372407  35.8583929  12.9794227  55.2190381
  36.1385682  12.3117416  55.8450807  36.6434536  13.1723323  54.7065045
  39.7292787  21.4011861  58.9661956  40.6810210  21.5009959  58.9874180
  39.5596237  20.6090130  59.4760040  37.7507167  18.4867444  59.1521357
  37.1557099  18.7672457  58.4567846  37.4656863  18.9761345  59.9238098
  34.0464196  23.4914034  44.1231460  34.9923300  23.3620242  44.1919878
  33.6678441  22.7528696  44.6000888  42.3575353  21.4129024  58.1262539
  41.8414402  20.6287481  57.9392468  43.2415302  21.0847741  58.2909058
  40.0186080  15.1570040  54.0858352  39.8210901  14.8485128  54.9701684
  40.6285786  15.8831679  54.2156281  48.0257415  25.6833988  57.2210293
  48.7560803  25.4219276  57.7817996  47.4164360  24.9462710  57.2612360
  46.1072712  23.8241850  57.8184744  45.3805875  23.6897815  57.2101235
  45.6919999  24.1318679  58.6241462  33.9302888  27.5431780  65.5832117
  34.8505898  27.7210379  65.7772163  33.8952471  26.5987825  65.4311816
  32.2307113  21.4164010  44.0586345  31.3238568  21.1197123  44.1349059
  32.5083094  21.1193828  43.1920631  23.1485053  22.7370374  54.5085391
  22.8287838  21.8835682  54.2159765  22.6018481  22.9518952  55.2643359
  26.9264961  25.4532815  58.2254898  27.1450971  26.3849922  58.2442932
  27.3390735  25.0940789  59.0109702  33.8469179  15.9600900  50.2130586
  33.0369907  15.6147985  50.5885832  34.5353596  15.6508444  50.8018198
  35.7759727  15.0378947  51.8354883  36.3290765  15.4574400  52.4944906
  36.0129813  14.1114695  51.8777839  31.7992826  21.0266020  67.6157647
  31.6989553  21.9760377  67.5469738  31.5814368  20.6984259  66.7433717
  31.0005897  18.2750945  44.1998324  31.8625061  18.6005844  44.4594142
  31.1856242  17.4882441  43.6871390  23.0173313  26.3573285  56.4778513
  22.3236785  25.9427238  55.9648467  23.7646304  26.3993822  55.8811932
  39.1538534  17.1479472  51.3433547  38.5737203  17.8064276  50.9611600
  38.8874467  16.3256816  50.9320965  37.6042100  16.5484530  53.5454868
  38.1041879  16.6601064  52.7369186  38.2477708  16.2445582  54.1855676
  31.6624096  24.4563159  66.4322708  31.1791178  25.2563519  66.6386598
  31.7485035  24.4671104  65.4790152  24.9310056  26.2891539  54.3544528
  24.9080744  26.3879226  53.4026411  25.2410692  27.1356690  54.6761694
  27.5897434  28.3467694  58.4691142  28.5440687  28.3151636  58.4021074
  27.3909957  27.8858318  59.2841368  28.1796816  26.9168810  61.0361940
  28.9989705  27.4112889  61.0596777  28.4533623  26.0000778  61.0079507
  37.9363412  19.3079562  50.3989895  37.0489267  19.5929213  50.1810090
  38.3517401  19.1473326  49.5517172  41.2877948  19.3326083  54.1144235
  42.0638338  19.8222536  54.3868852  40.5626082  19.7584137  54.5716104
  43.7250507  20.0453702  55.1718175  44.3194998  19.8049438  54.4611484
  43.7977090  19.3260833  55.7991712  25.9447662  33.8887313  55.4861340
  25.8102130  33.1287714  54.9199338  25.5279725  34.6128213  55.0190129
  23.4331730  21.2506944  61.7354137  24.0790594  20.7405898  62.2241362
  23.2248881  21.9875625  62.3097562  35.9585122  28.3187791  67.2346278
  36.8276282  28.4928444  66.8732912  35.4791874  29.1382208  67.1122007
  31.9535340  15.5146988  47.4878033  31.9414010  16.4588828  47.6446304
  32.8458762  15.3317134  47.1937494  35.7687460  12.1089765  51.7423970
  35.0019856  11.5548252  51.8880652  36.1798165  12.1811634  52.6038122
  27.7729221  18.3974561  65.8329151  28.6360683  18.0411366  66.0432476
  27.1994632  18.0588456  66.5204555  58.4544754  40.8550295  54.4890048
  57.7008462  40.2857693  54.3334053  58.5892295  40.8212960  55.4360683
  40.3310722  31.8055278  66.8259123  39.9377667  31.2521476  67.5006767
  41.1476862  32.1165856  67.2165640  43.2478683  33.2213157  64.4179379
  43.9888396  33.8220310  64.3383842  43.4796606  32.4790794  63.8597422
  48.4808937  43.2685902  64.7177229  48.3294444  43.0396454  63.8007313
  48.4713617  44.2256504  64.7308574  49.4083250  38.2939391  63.3370878
  50.3093113  38.1545855  63.0454875  49.4831224  38.4593845  64.2769055
  53.1969108  36.7420942  58.1262539  52.6808156  35.9579399  57.9392468
  54.0809056  36.4139659  58.2909058  58.8651169  41.0125905  57.2210293
  59.5954558  40.7511193  57.7817996  58.2558115  40.2754627  57.2612360
  56.9466466  39.1533768  57.8184744  56.2199630  39.0189733  57.2101235
  56.5313753  39.4610597  58.6241462  42.6386581  36.3557938  67.6157647
  42.5383307  37.3052295  67.5469738  42.4208123  36.0276177  66.7433717
  46.7978877  43.6479709  67.2346278  47.6670036  43.8220361  66.8732912
  46.3185628  44.4674126  67.1122007  58.4571352  55.3568335  56.6391552
  59.0949762  55.2375082  55.9354892  58.3392195  56.3049179  56.6979504
  63.4121048  53.0195022  54.6177739  64.1446220  52.4494239  54.8515568
  62.6560404  52.6316622  55.0584244  60.9346468  46.7316596  59.0772347
  60.6029793  47.6012007  58.8533562  60.3392082  46.4152880  59.7566378
  60.8275132  51.4511682  56.1565697  59.9192009  51.3827091  55.8624458
  60.7762728  51.9283627  56.9847523  62.6936778  49.6528121  57.9343571
  62.0511158  49.9460654  57.2883366  62.1891707  49.5381041  58.7396768
  53.1562370  55.6786781  63.6618562  53.8977054  56.2171825  63.3853385
  52.4499355  56.3053070  63.8190114  58.1348225  50.4192897  61.2905454
  57.8909157  51.1734957  60.7539729  58.4108155  50.7978244  62.1252701
  60.0886688  56.9631509  59.9682719  60.3003583  57.6063269  59.2917100
  60.0416436  56.1293826  59.5004649  57.6912917  49.5749330  56.8719292
  56.8297396  49.8730583  57.1636029  57.7175351  49.7919729  55.9400324
  61.2032516  59.8403465  58.1405077  62.0249959  59.4383652  57.8587758
  61.1994918  59.7371699  59.0921193  69.2938509  56.1842213  54.4890048
  68.5402217  55.6149611  54.3334053  69.4286050  56.1504878  55.4360683
  54.0872437  48.5505074  64.4179379  54.8282151  49.1512227  64.3383842
  54.3190360  47.8082712  63.8597422  58.0329600  44.5786177  58.6943661
  57.6893870  45.4687819  58.6182772  58.4008563  44.3887835  57.8313246
  57.1126141  46.9490832  56.6592894  56.6090936  46.9120968  55.8460700
  57.4056747  47.8583575  56.7189551  61.2105464  56.7961124  55.7935878
  60.5529138  57.4860386  55.8816006  62.0145863  57.1857556  56.1369864
  59.7305639  51.0603484  53.2019629  58.9928395  50.5480871  53.5329872
  59.9832412  50.6203866  52.3902906  59.8317266  43.8379736  53.7961399
  60.1376143  42.9777100  53.5087314  60.5569871  44.4297357  53.5960393
  63.3972034  58.4047377  56.6103463  63.8308540  58.3122666  57.4586517
  64.1103614  58.3804877  55.9723479  55.9123894  48.3328968  61.6426676
  55.2651809  49.0318918  61.5491152  56.6824909  48.7665112  62.0102924
  65.5129646  55.0044744  55.7884252  65.5019523  55.8869459  55.4178185
  64.6447026  54.6516295  55.5938789  60.1018884  46.2673972  56.2945320
  59.1881964  46.4978199  56.4627527  60.5311985  46.3512416  57.1459352
  59.8725342  54.4563864  58.7945214  59.2196793  54.7039771  58.1397666
  60.2505722  53.6428002  58.4607691  55.9212915  55.1983675  65.2811251
  55.2453552  55.0977804  65.9513626  56.7440549  55.0422889  65.7447248
  66.1154256  56.1544963  52.3933715  66.5585402  55.4052288  51.9952838
  65.2380767  56.1455100  52.0107447  60.2477004  53.6231308  63.3370878
  61.1486867  53.4837773  63.0454875  60.3224979  53.7885763  64.2769055
  65.6587121  57.6250202  54.7856163  66.4934012  58.0640006  54.9493723
  65.7946250  57.1488855  53.9664408  62.7078627  55.1829936  60.7333650
  63.1832749  55.3757583  59.9252502  61.7844192  55.2389122  60.4877034
  57.2858844  47.2177780  59.6989484  57.8040787  47.9538807  59.3735973
  56.9313976  47.5241773  60.5336243  61.4080296  52.0595696  58.9661956
  62.3597719  52.1593794  58.9874180  61.2383746  51.2673965  59.4760040
  59.4294675  49.1451280  59.1521357  58.8344608  49.4256292  58.4567846
  59.1444372  49.6345181  59.9238098  63.8868374  55.2801816  58.0804256
  63.8544694  54.3417817  58.2663940  64.4968997  55.3585853  57.3470081
  64.0362862  52.0712860  58.1262539  63.5201911  51.2871316  57.9392468
  64.9202811  51.7431576  58.2909058  61.6973589  45.8153875  54.0858352
  61.4998410  45.5068963  54.9701684  62.3073295  46.5415514  54.2156281
  69.7044924  56.3417823  57.2210293  70.4348312  56.0803111  57.7817996
  69.0951869  55.6046545  57.2612360  67.7860221  54.4825686  57.8184744
  67.0593384  54.3481651  57.2101235  67.3707508  54.7902514  58.6241462
  53.4780335  51.6849856  67.6157647  53.3777062  52.6344213  67.5469738
  53.2601877  51.3568095  66.7433717  60.8326043  47.8063307  51.3433547
  60.2524712  48.4648111  50.9611600  60.5661976  46.9840652  50.9320965
  59.2829609  47.2068365  53.5454868  59.7829388  47.3184899  52.7369186
  59.9265217  46.9029418  54.1855676  53.3411605  55.1146995  66.4322708
  52.8578687  55.9147355  66.6386598  53.4272544  55.1254939  65.4790152
  59.6150921  49.9663398  50.3989895  58.7276776  50.2513048  50.1810090
  60.0304910  49.8057161  49.5517172  62.9665457  49.9909919  54.1144235
  63.7425847  50.4806371  54.3868852  62.2413591  50.4167973  54.5716104
  65.4038016  50.7037538  55.1718175  65.9982507  50.4633274  54.4611484
  65.4764599  49.9844668  55.7991712  63.3996751  51.2707665  51.4390305
  63.1433685  50.8704301  52.2698513  62.7749619  51.9851459  51.3140444
  67.7109088  54.0103739  53.9461597  67.1508646  54.0796928  54.7193159
  67.1052592  53.8344723  53.2261093  66.1054813  70.6387681  56.5753077
  65.7673325  70.5228745  55.6873612  66.9744581  70.2378846  56.5554083
  71.7740223  62.0608514  59.0772347  71.4423548  62.9303925  58.8533562
  71.1785836  61.7444798  59.7566378  68.2671742  74.2621060  58.4768260
  67.9672466  75.1646099  58.3684067  67.9222802  73.9953243  59.3289413
  69.4711464  73.1507839  62.2590723  69.8794820  72.7090250  61.5145356
  68.7488725  72.5760467  62.5124916  68.5306671  64.9041247  56.8719292
  67.6691150  65.2022501  57.1636029  68.5569106  65.1211646  55.9400324
  67.1499368  77.0071100  64.2945110  66.7063222  76.2207478  63.9766014
  67.8116581  77.1950250  63.6289000  61.9086489  78.5366901  58.8205788
  62.4593914  78.4083965  58.0482782  61.0697965  78.8361790  58.4700681
  69.2480606  77.2873899  62.3226511  69.2299081  78.1082781  61.8306780
  70.1700526  77.1627975  62.5476652  67.9519895  62.2782750  56.6592894
  67.4484691  62.2412885  55.8460700  68.2450502  63.1875493  56.7189551
  64.1962781  62.3621480  55.6659076  65.0615778  62.1664288  55.3064965
  64.2640290  62.1331832  56.5928433  68.1227051  80.4581739  46.6000490
  67.4488750  80.7613436  47.2085448  68.5092873  81.2610819  46.2505948
  70.6711020  59.1671654  53.7961399  70.9769897  58.3069018  53.5087314
  71.3963625  59.7589274  53.5960393  74.2096409  71.6662767  51.5992192
  74.0714307  71.8564363  50.6713381  73.8532627  72.4282150  52.0560243
  67.9693683  77.3341388  58.1436564  68.0230705  77.9032325  58.9114280
  67.1008465  77.5043273  57.7790601  66.9281783  71.5001650  59.7023496
  67.8573843  71.6512810  59.5292463  66.5072813  71.5885671  58.8472142
  71.8688653  76.9588860  62.7953711  71.8101199  76.2748080  62.1284294
  72.2708172  77.7007850  62.3434337  65.4007214  79.5829897  57.9928934
  65.3277385  80.3884868  58.5048238  64.9584607  79.7821862  57.1676955
  68.4993644  64.6296296  54.1465961  68.9962343  63.8766258  53.8267031
  67.7280625  64.6660613  53.5809170  67.8605897  79.4816731  60.1487092
  68.5733870  80.1164195  60.0762994  67.3695926  79.5780597  59.3327094
  62.9117811  77.2311174  60.9692663  63.6127270  77.8647657  61.1222058
  62.4412926  77.5725906  60.2088303  70.9412638  61.5965890  56.2945320
  70.0275718  61.8270116  56.4627527  71.3705740  61.6804334  57.1459352
  65.5029453  81.8342520  59.5168867  66.0547761  81.9974141  60.2817952
  65.8435646  82.4246958  58.8448892  70.3540327  76.6603777  65.3717521
  70.8980231  77.2733736  64.8772476  69.7727172  77.2183356  65.8884534
  68.6397840  79.7824496  56.5032549  68.5148979  78.9814235  55.9943494
  69.2976931  80.2770689  56.0146519  70.7032748  77.5833516  58.1312099
  69.7563084  77.4638867  58.0590426  71.0515521  76.6956014  58.2138360
  71.3113304  78.2014791  55.4181324  72.2359851  77.9957652  55.2805775
  71.1428607  77.9531192  56.3270665  64.9201339  61.4990662  58.0927334
  65.7427408  61.0251140  57.9706225  65.1639402  62.2781146  58.5926021
  64.3036300  65.1812331  55.9500203  64.2897869  64.2853424  55.6132501
  65.0208728  65.1882994  56.5838489  66.1562431  65.6149671  57.9953330
  65.8980209  66.5366742  57.9937660  65.6247471  65.2180105  58.6853794
  66.5764387  61.7481621  54.3554493  66.5986083  61.8120954  53.4006472
  66.9932446  60.9086130  54.5494999  76.9548011  71.4836881  52.3933715
  77.3979157  70.7344206  51.9952838  76.0774521  71.4747017  52.0107447
  72.0883792  78.0367222  47.8740314  72.7834697  78.6573915  48.0927628
  72.4306942  77.1862574  48.1492692  65.6495264  79.4001002  61.5317521
  65.9582390  79.1550148  62.4040221  66.4470746  79.6047640  61.0436391
  73.6769121  76.1199832  64.7078842  72.8864665  76.1023970  64.1683342
  73.4402476  76.6588125  65.4627879  75.2985193  75.3889239  62.2653592
  75.0070002  75.7519220  63.1017053  74.6857325  74.6756248  62.0866925
  76.4980876  72.9542119  54.7856163  77.3327767  73.3931923  54.9493723
  76.6340004  72.4780772  53.9664408  68.1252598  62.5469698  59.6989484
  68.6434542  63.2830725  59.3735973  67.7707731  62.8533691  60.5336243
  68.3765192  58.9669980  55.2190381  68.6566946  58.2993169  55.8450807
  69.1615799  59.1599076  54.7065045  69.3995920  78.4266124  47.9123990
  70.3326594  78.3611686  48.1156865  69.3119133  79.2622391  47.4538522
  72.0283937  77.7431995  44.8727937  71.9497569  77.4091858  45.7663695
  72.8493604  78.2353762  44.8719409  72.5367344  61.1445793  54.0858352
  72.3392165  60.8360881  54.9701684  73.1467049  61.8707432  54.2156281
  66.3650442  61.9476653  50.2130586  65.5551170  61.6023738  50.5885832
  67.0534859  61.6384197  50.8018198  68.2940990  61.0254700  51.8354883
  68.8472029  61.4450153  52.4944906  68.5311077  60.0990448  51.8777839
  71.6719797  63.1355225  51.3433547  71.0918466  63.7940029  50.9611600
  71.4055730  62.3132569  50.9320965  70.1223364  62.5360283  53.5454868
  70.6223142  62.6476817  52.7369186  70.7658972  62.2321335  54.1855676
  70.4544675  65.2955315  50.3989895  69.5670530  65.5804966  50.1810090
  70.8698665  65.1349079  49.5517172  78.5502843  69.3395656  53.9461597
  77.9902401  69.4088846  54.7193159  77.9446346  69.1636641  53.2261093
  61.6198052  80.7732383  55.6979783  61.5030436  81.7177816  55.5958473
  60.7990498  80.4705945  56.0865582  64.4716604  61.5022741  47.4878033
  64.4595274  62.4464581  47.6446304  65.3640026  61.3192887  47.1937494
  62.6452566  81.4260645  58.9135711  63.5479813  81.4584256  59.2302206
  62.4189936  80.4961096  58.9282047  68.2868723  58.0965518  51.7423970
  67.5201119  57.5424005  51.8880652  68.6979428  58.1687387  52.6038122
  80.1358861  86.0152170  56.6391552  80.7737271  85.8958918  55.9354892
  80.0179704  86.9633014  56.6979504  76.9448568  85.9679598  56.5753077
  76.6067079  85.8520663  55.6873612  77.8138336  85.5670763  56.5554083
  72.8035383  87.8215075  52.5649968  72.2400249  87.7305012  51.7966256
  72.6887778  87.0014979  53.0452460  77.4268351  87.1214450  62.5339282
  77.4156991  86.7267248  61.6619786  77.5888990  86.3880523  63.1273054
  70.3499815  89.3166266  55.4034188  71.1421107  88.9757091  54.9880488
  70.5896465  89.4261241  56.3236342  78.3834942  91.4886042  47.8764433
  77.7322922  92.0740123  47.4898447  79.1779305  92.0192237  47.9359470
  72.3090569  88.5775180  48.2751567  73.0821445  88.0304167  48.1364443
  72.6615968  89.4419429  48.4866029  74.1475612  89.9051562  61.4818466
  73.8565478  90.8097193  61.3665133  74.7832596  89.9468090  62.1962536
  75.0731819  87.2828410  58.0719826  75.6695391  87.0584433  57.3576789
  75.1306790  86.5413156  58.6745274  74.6456847  84.7367846  45.9070017
  74.8982368  84.2149367  45.1453480  73.7081406  84.5733991  46.0096701
  79.6900130  83.7403624  53.7144760  80.4763219  83.3223047  53.3635177
  79.9538834  84.6449716  53.8826409  79.8610207  89.1776474  48.4133417
  79.2256040  89.2511101  49.1254322  79.5307614  89.7670073  47.7352496
  85.0908557  83.6778857  54.6177739  85.8233729  83.1078074  54.8515568
  84.3347913  83.2900458  55.0584244  74.3653136  86.6395952  48.1094392
  74.2489394  85.9640855  48.7775476  74.4755396  86.1528326  47.2926545
  76.7084677  86.1006099  51.8141081  76.3442884  85.5736720  52.5254003
  77.5651793  85.7104568  51.6407567  76.3490164  81.1295999  46.8102430
  76.5164566  81.9976235  47.1772901  76.1587333  81.2923280  45.8863719
  79.1065497  89.5912977  58.4768260  78.8066220  90.4938016  58.3684067
  78.7616556  89.3245161  59.3289413  72.5577978  86.0426774  54.5104965
  71.6328475  85.9102988  54.7182656  72.8062392  86.8220994  55.0074907
  82.5062641  82.1095518  56.1565697  81.5979518  82.0410926  55.8624458
  82.4550236  82.5867463  56.9847523  76.3279385  83.5853656  47.7949097
  76.2079010  84.0310707  48.6334577  75.6331973  83.9338974  47.2362635
  69.9186789  85.6860048  55.3448754  70.0479171  85.9394527  56.2588165
  69.2384241  86.2787756  55.0253409  74.0886277  96.3557298  51.4439228
  74.0110306  97.3065123  51.5227708  73.4847920  96.0103170  52.1014154
  76.5803506  83.5285163  64.1000595  75.8036841  84.0879083  64.0903459
  77.2194070  84.0141946  64.6215465  84.3724287  80.3111956  57.9343571
  83.7298667  80.6044489  57.2883366  83.8679216  80.1964876  58.7396768
  82.0264451  84.0575129  48.6229431  82.9382307  84.2902516  48.4477128
  81.5174098  84.6412173  48.0604509  74.8349879  86.3370617  63.6618562
  75.5764563  86.8755661  63.3853385  74.1286864  86.9636905  63.8190114
  80.3105218  88.4799757  62.2590723  80.7188574  88.0382168  61.5145356
  79.5882480  87.9052385  62.5124916  76.6636288  83.4172364  59.6324280
  77.5097484  83.8411777  59.7758929  76.6034926  82.7605988  60.3262843
  80.6334033  89.0400948  56.0143012  80.0042896  89.2046662  55.3119080
  80.2459695  89.4542557  56.7853976  84.5123265  89.9755385  53.3687376
  83.8274303  90.3554287  52.8184409  84.5967114  90.5850712  54.1019324
  79.8135734  81.0776732  61.2905454  79.5696666  81.8318793  60.7539729
  80.0895664  81.4562080  62.1252701  81.7674197  87.6215345  59.9682719
  81.9791092  88.2647104  59.2917100  81.7203945  86.7877661  59.5004649
  79.3700426  80.2333165  56.8719292  78.5084905  80.5314419  57.1636029
  79.3962860  80.4503564  55.9400324  76.1861995  88.7775356  53.2793097
  76.6500340  89.0563059  52.4897720  75.9218793  87.8758800  53.0966188
  73.0786076  88.3246837  56.2172860  73.6487433  88.7534106  55.5790345
  73.6694188  88.0429422  56.9157046  75.1230881  84.8998508  50.0882662
  75.8254924  85.3519552  50.5556589  74.7911509  84.2582327  50.7162555
  73.5711243  83.4910265  64.4633872  72.9409903  84.1726546  64.6969269
  73.4647330  83.3793346  63.5187010  68.8656215  83.1582061  55.3899796
  68.0755269  83.4139589  54.9139907  69.3567462  83.9730399  55.4951836
  82.8820025  90.4987300  58.1405077  83.7037468  90.0967487  57.8587758
  82.8782427  90.3955534  59.0921193  70.8170960  83.5226640  52.3483273
  70.0202124  83.6345334  52.8666768  70.5896553  83.8613292  51.4824163
  76.6476628  90.0471343  60.2965787  76.7121060  90.5091750  61.1323959
  75.9387552  89.4168708  60.4248097  67.1493918  83.4112551  57.8214787
  67.4001956  84.2959561  58.0872363  67.6853466  83.2317153  57.0489879
  90.9726018  86.8426048  54.4890048  90.2189726  86.2733446  54.3334053
  91.1073559  86.8088713  55.4360683  76.3624646  91.7139451  50.1644768
  76.2270320  92.5590986  50.5929615  76.9034458  91.9158728  49.4010701
  72.8491985  77.7931031  66.8259123  72.4558931  77.2397229  67.5006767
  73.6658126  78.1041609  67.2165640  69.8154043  89.2314889  50.7372693
  70.3278564  90.0258139  50.8878257  70.4676756  88.5341179  50.6706294
  71.6248928  92.3480645  52.8195446  71.8015556  93.2698610  52.6316430
  72.4205761  92.0339064  53.2489826  75.7659946  79.2088910  64.4179379
  76.5069660  79.8096063  64.3383842  75.9977869  78.4666547  63.8597422
  70.9101284  84.3945277  62.6957609  70.7954799  83.4930534  62.9964708
  70.0545802  84.6408974  62.3442426  77.9893122  92.3363017  64.2945110
  77.5456976  91.5499396  63.9766014  78.6510336  92.5242168  63.6289000
  72.7480243  93.8658819  58.8205788  73.2987668  93.7375882  58.0482782
  71.9091719  94.1653708  58.4700681  80.0874360  92.6165817  62.3226511
  80.0692835  93.4374698  61.8306780  81.0094280  92.4919892  62.5476652
  76.5447414  90.1309947  63.1650019  77.0775751  89.3698235  62.9349327
  76.0161495  89.8383598  63.9074174  79.7117109  75.2370013  58.6943661
  79.3681379  76.1271654  58.6182772  80.0796072  75.0471670  57.8313246
  67.7802960  87.5603543  51.5132263  68.6178182  87.9700551  51.2965971
  67.9581227  86.6202985  51.4832457  79.6767392  85.2278624  47.2016096
  79.1614015  85.9983228  47.4404484  79.4044700  84.5543760  47.8249158
  77.2614503  80.0728324  52.2601335  76.4056099  79.6835175  52.0806973
  77.6741455  80.1520285  51.4001120  78.7913650  77.6074668  56.6592894
  78.2878445  77.5704803  55.8460700  79.0844256  78.5167410  56.7189551
  75.0356535  77.6913397  55.6659076  75.9009532  77.4956206  55.3064965
  75.1034044  77.4623749  56.5928433  84.6501666  87.9810978  49.1369270
  83.8731109  87.6422138  48.6924432  85.3293147  87.9863602  48.4624235
  79.4653695  83.1005716  49.0275877  79.1603831  83.4151865  49.8786020
  80.4184137  83.1787136  49.0703210  77.9100127  89.2595939  50.6768831
  77.3821488  88.5248699  50.3642069  77.4087630  90.0370615  50.4308800
  82.8892973  87.4544960  55.7935878  82.2316647  88.1444221  55.8816006
  83.6933372  87.8441392  56.1369864  72.6418855  79.9215605  53.0375443
  73.2162606  79.6990787  52.3048636  73.2289837  79.9904300  53.7904044
  81.6998432  85.8089332  53.8439819  82.2130313  86.4419324  54.3461529
  82.3499656  85.2090528  53.4783179  72.9688442  81.9520066  47.0571328
  72.1325754  82.2894753  47.3780603  72.8293211  81.8169046  46.1198465
  74.9441522  76.7956854  51.7650512  74.2905935  76.4805871  51.1407127
  74.9021996  76.1732595  52.4910335  76.0552727  87.0776149  43.6803804
  75.1479789  86.8465403  43.8794953  76.5523759  86.2813769  43.8677786
  78.9620806  95.7873657  46.6000490  78.2882505  96.0905353  47.2085448
  79.3486628  96.5902737  46.2505948  78.1779263  83.2838788  56.0898160
  77.2601824  83.5053735  55.9319848  78.5939406  83.3585098  55.2309867
  78.9614310  84.6830204  51.2200840  79.7086129  85.1951601  50.9107962
  79.2305900  84.3614256  52.0805234  77.2340961  87.1788744  48.2027794
  76.3252180  86.8947777  48.3000264  77.2636044  87.5987823  47.3431101
  82.4660228  90.7895334  51.9718962  82.0122555  89.9486244  52.0284152
  81.8354195  91.4256732  52.3093742  81.4093148  81.7187320  53.2019629
  80.6715904  81.2064706  53.5329872  81.6619921  81.2787701  52.3902906
  80.9093167  92.6271830  52.9068780  81.2016142  93.1876888  52.1881146
  81.4191788  92.9200391  53.6621939  81.5104775  74.4963572  53.7961399
  81.8163652  73.6360935  53.5087314  82.2357380  75.0881192  53.5960393
  67.8029131  84.8994258  52.1842997  67.6053531  84.3063619  51.4594063
  67.2475795  84.5946469  52.9018935  75.7825855  84.7917365  54.3037590
  75.8374464  83.8391201  54.2280066  74.9717057  84.9476804  54.7878888
  76.9317048  88.7197488  45.5415873  76.4936478  88.0033347  45.0821510
  77.6727489  88.9473603  44.9800964  73.7218215  83.4094425  52.0627969
  72.9086080  83.7088595  52.4693161  74.2177209  83.0150113  52.7802451
  75.8726792  93.4052182  53.9962233  75.8302971  93.6313028  53.0670765
  76.7889491  93.1715556  54.1448034  79.3192426  83.8736249  60.8942863
  79.6741814  84.1007722  61.7537328  79.9664557  84.2054626  60.2720118
  85.0490163  86.9954685  51.5992192  84.9108062  87.1856281  50.6713381
  84.6926382  87.7574068  52.0560243  73.2132289  80.9812780  57.6789204
  73.8531669  80.8401539  56.9812167  72.3809820  80.6947294  57.3027806
  85.0759543  89.0631212  56.6103463  85.5096049  88.9706501  57.4586517
  85.7891123  89.0388712  55.9723479  73.9892593  90.2815211  53.7924196
  74.7833192  89.7865531  53.5906771  73.2784286  89.7533074  53.4291902
  78.8087438  92.6633306  58.1436564  78.8624460  93.2324242  58.9114280
  77.9402219  92.8335191  57.7790601  70.2975357  84.4258292  49.8683949
  69.3672945  84.3642748  50.0853911  70.3932829  83.9034245  49.0720590
  70.2160906  80.9513105  52.4562190  70.4767723  81.8658438  52.3471351
  71.0378078  80.4837548  52.6058803  71.6885831  82.3650862  59.6261015
  72.3608884  82.1568224  58.9773664  70.8615618  82.1672948  59.1866247
  85.9375092  89.1054913  59.1436348  86.1310982  90.0100723  59.3895623
  85.8375710  88.6462332  59.9774933  77.5911403  78.9912803  61.6426676
  76.9439318  79.6902753  61.5491152  78.3612418  79.4248947  62.0102924
  80.9990201  89.2561655  64.7177229  80.8475707  89.0272207  63.8007313
  80.9894880  90.2132257  64.7308574  77.7675537  86.8293568  59.7023496
  78.6967597  86.9804728  59.5292463  77.3466567  86.9177589  58.8472142
  76.5663869  90.8544233  57.4722033  76.4274955  90.4863017  58.3447971
  75.7778465  91.3691872  57.3005991  77.1612021  95.9553329  48.8147570
  77.3363777  95.4841372  49.6293192  76.4744809  96.5819095  49.0428830
  78.1169084  90.2325835  54.8610871  77.7818917  90.1926605  55.7568521
  77.6173030  89.5670551  54.3881281  72.0913328  85.6393465  60.3863452
  71.9533126  84.9073704  60.9874991  73.0018252  85.5502365  60.1047640
  81.0528276  87.5781870  45.1347931  80.4357447  86.8528698  45.0380983
  80.5844764  88.3391230  44.7915005  74.7195629  85.3513425  59.8747132
  75.4295247  84.7106617  59.8333750  74.6764937  85.6026319  60.7973312
  82.7082408  92.2880778  62.7953711  82.6494954  91.6039998  62.1284294
  83.1101926  93.0299768  62.3434337  73.4324563  82.3378642  61.6942771
  72.8961920  81.8869381  62.3464368  72.8441271  82.4724551  60.9513236
  71.7273106  99.1042692  55.5887430  71.9669705  99.7361216  56.2666448
  70.8842303  98.7530732  55.8752789  72.8426822  81.7967294  44.2569235
  71.9656288  81.6756095  43.8931482  73.3184575  81.0053372  44.0048124
  82.7099815  90.2520362  61.0267691  81.8226594  89.9146284  61.1494089
  83.2798366  89.5203393  61.2636456  64.3628962  86.5844454  54.3510742
  65.0500002  86.2706184  53.7631757  64.2077091  87.4885818  54.0777993
  69.1663684  81.4734650  58.7795766  69.0821873  80.8660320  58.0446176
  68.3446391  81.9643668  58.7805262  76.2400968  94.9121814  57.9928934
  76.1671140  95.7176786  58.5048238  75.7978361  95.1113780  57.1676955
  76.0290748  94.1493584  51.5031755  75.2458270  94.6915264  51.5969980
  76.7283493  94.6667564  51.9025997  79.3387398  79.9588214  54.1465961
  79.8356098  79.2058176  53.8267031  78.5674380  79.9952530  53.5809170
  87.1917155  85.6628579  55.7884252  87.1807032  86.5453295  55.4178185
  86.3234535  85.3100130  55.5938789  78.6999652  94.8108648  60.1487092
  79.4127624  95.4456113  60.0762994  78.2089680  94.9072514  59.3327094
  80.4217179  88.7159901  51.7204384  79.4873457  88.8361363  51.5509088
  80.5993847  87.8132368  51.4564394  75.9222367  82.1005597  53.8737645
  75.5520154  81.5476637  54.5618551  76.4181459  81.4963730  53.3212645
  83.8089730  84.5577220  52.2554418  84.2750182  85.3905212  52.1814721
  84.2597231  84.0922202  52.9599677  73.7511565  92.5603092  60.9692663
  74.4521025  93.1939575  61.1222058  73.2806680  92.9017823  60.2088303
  81.8765961  90.9021041  49.2540570  82.1525805  90.7877636  50.1634444
  81.0070460  90.5038526  49.2152743  81.7806393  76.9257807  56.2945320
  80.8669473  77.1562034  56.4627527  82.2099494  77.0096251  57.1459352
  81.5512851  85.1147699  58.7945214  80.8984302  85.3623607  58.1397666
  81.9293231  84.3011837  58.4607691  78.5120025  95.1507392  52.8973384
  78.6942420  94.3329048  53.3601136  79.3353011  95.3675085  52.4598274
  78.8462191  94.0775577  50.1588432  79.3749957  93.5668032  49.5458595
  79.1090410  93.7618108  51.0233965  77.6000424  85.8567510  65.2811251
  76.9241061  85.7561640  65.9513626  78.4228058  85.7006724  65.7447248
  69.3479283  92.0939447  57.9023766  69.9332720  91.3483135  58.0351670
  69.1504122  92.4043403  58.7860430  72.2017939  95.1290694  52.9186208
  71.5328314  95.6136822  52.4350248  72.0630808  95.3759915  53.8329587
  63.9396938  84.6645047  56.6228209  63.9781038  84.1308638  57.4165327
  63.4337231  84.1380252  56.0039186  76.3423207  97.1634438  59.5168867
  76.8941515  97.3266059  60.2817952  76.6829401  97.7538875  58.8448892
  71.3187700  79.5109587  60.1190751  71.3829027  80.3724418  59.7068149
  71.2554821  78.8983589  59.3863110  70.7939973  81.5832720  63.7663786
  71.4212012  81.2009797  64.3801310  69.9367892  81.3646922  64.1319478
  81.1934082  91.9895695  65.3717521  81.7373986  92.6025653  64.8772476
  80.6120926  92.5475274  65.8884534  67.5705516  83.3909149  49.6982141
  67.8658957  82.4819828  49.6449194  66.6693551  83.3696889  49.3763143
  79.4791594  95.1116413  56.5032549  79.3542734  94.3106153  55.9943494
  80.1370686  95.6062607  56.0146519  71.0999763  81.4665146  55.6809689
  70.3786348  82.0801113  55.5417162  71.8893018  82.0022911  55.6026335
  81.5426503  92.9125433  58.1312099  80.5956838  92.7930784  58.0590426
  81.8909276  92.0247931  58.2138360  73.9026076  78.8019572  61.9550341
  74.4260478  79.0481869  62.7176650  73.6838410  79.6339607  61.5353478
  69.2993357  81.0723247  49.8221466  68.9706063  80.1920626  49.6396572
  69.6532728  81.0170915  50.7097855  78.5472936  92.7078149  54.3316451
  78.3997899  91.7794857  54.5124021  79.3726430  92.7298240  53.8473526
  72.4135180  81.3596217  50.1896943  72.7531253  81.8882138  49.4675552
  72.8607301  81.6976623  50.9655510  82.1507058  93.5306708  55.4181324
  83.0753605  93.3249570  55.2805775  81.9822361  93.2823109  56.3270665
  75.1078621  79.7433267  59.6400011  74.7675442  78.9441080  60.0420691
  74.4017628  80.0434978  59.0676845  75.7595093  76.8282580  58.0927334
  76.5821162  76.3543058  57.9706225  76.0033157  77.6073063  58.5926021
  74.4003328  79.8570838  48.3890236  75.1211690  80.2352091  47.8853953
  73.7768632  80.5759715  48.4925214  78.5434450  80.5615987  49.3248568
  78.7598065  81.4440625  49.0237397  78.0628518  80.1702201  48.5954210
  73.2833672  83.5201700  55.9019313  73.1378253  83.8342003  56.7943595
  72.8058875  84.1386601  55.3490212  75.1430055  80.5104248  55.9500203
  75.1291624  79.6145342  55.6132501  75.8602483  80.5174912  56.5838489
  76.9956185  80.9441589  57.9953330  76.7373963  81.8658659  57.9937660
  76.4641226  80.5472023  58.6853794  81.9402374  94.0492376  50.7743415
  82.1139252  93.4838798  50.0217268  82.4331265  94.8493271  50.5922905
  67.7579334  86.0607045  58.8406974  67.2132802  86.8366853  58.9727249
  68.6358684  86.4077849  58.6826096  74.5466951  79.3918629  51.2187773
  74.6682862  78.4635275  51.4178660  74.2568993  79.4057315  50.3066088
  77.4158141  77.0773539  54.3554493  77.4379838  77.1412872  53.4006472
  77.8326200  76.2378048  54.5494999  87.7941765  86.8128799  52.3933715
  88.2372911  86.0636124  51.9952838  86.9168276  86.8038935  52.0107447
  82.9277547  93.3659140  47.8740314  83.6228451  93.9865833  48.0927628
  83.2700697  92.5154491  48.1492692  68.5445356  85.1876941  61.7337131
  67.8027092  85.3359576  62.3201761  68.2238100  85.4485207  60.8703880
  84.8268970  90.8158846  49.4027644  85.3520294  91.1546118  48.6776964
  84.7391322  89.8805861  49.2190779  76.4889019  94.7292919  61.5317521
  76.7976145  94.4842066  62.4040221  77.2864501  94.9339558  61.0436391
  76.5109631  96.8830829  53.7622898  76.0714621  96.3907208  54.4555754
  77.2617748  96.3403797  53.5214973  68.9901970  93.0742370  53.7647526
  69.8159989  92.7746142  53.3846169  68.6396022  92.3049992  54.2137314
  73.9583503  92.4268838  55.8345199  73.3363512  91.7639543  55.5347427
  74.6288370  92.4529970  55.1518847  67.1910575  90.9928696  54.7236459
  66.3542483  90.5650871  54.5420461  67.1634220  91.1861140  55.6607250
  74.0308030  80.9050626  65.4277705  74.0796186  81.7812749  65.0455475
  74.5730544  80.3628019  64.8549349  84.5162876  91.4491749  64.7078842
  83.7258420  91.4315888  64.1683342  84.2796230  91.9880043  65.4627879
  84.6360751  88.2984216  62.0211571  84.6858756  88.1334223  62.9627094
  84.5274674  87.4311475  61.6309452  73.5197010  90.9772761  49.3103660
  73.6685130  91.6608226  48.6570333  74.3263453  90.9577851  49.8253116
  81.9264513  84.2815144  63.3370878  82.8274376  84.1421608  63.0454875
  82.0012488  84.4469598  64.2769055  76.2607319  81.6581998  62.1824064
  75.3910628  81.9515564  61.9106653  76.4966799  82.2422443  62.9031328
  86.1378948  90.7181157  62.2653592  85.8463756  91.0811138  63.1017053
  85.5251079  90.0048165  62.0866925  87.3374630  88.2834037  54.7856163
  88.1721521  88.7223841  54.9493723  87.4733759  87.8072690  53.9664408
  84.3866136  85.8413772  60.7333650  84.8620258  86.0341418  59.9252502
  83.4631701  85.8972958  60.4877034  71.2749643  87.0037939  50.3164729
  71.0295685  86.1000269  50.5144939  71.4445557  87.0055089  49.3744207
  78.9646352  77.8761615  59.6989484  79.4828296  78.6122642  59.3735973
  78.6101485  78.1825609  60.5336243  70.5445290  82.7366297  47.8150890
  69.8514535  82.8110652  47.1590926  70.2997042  81.9726640  48.3372407
  79.2158947  74.2961898  55.2190381  79.4960700  73.6285087  55.8450807
  80.0009554  74.4890993  54.7065045  77.0192415  93.4720892  46.7815407
  76.4466382  94.0911079  46.3285879  77.5925209  94.0220253  47.3155329
  83.0867805  82.7179532  58.9661956  84.0385228  82.8177630  58.9874180
  82.9171255  81.9257800  59.4760040  81.1082184  79.8035115  59.1521357
  80.5132117  80.0840128  58.4567846  80.8231881  80.2929016  59.9238098
  80.2389675  93.7558042  47.9123990  81.1720348  93.6903604  48.1156865
  80.1512888  94.5914309  47.4538522  82.8677692  93.0723912  44.8727937
  82.7891323  92.7383776  45.7663695  83.6887358  93.5645680  44.8719409
  85.5655883  85.9385652  58.0804256  85.5332203  85.0001652  58.2663940
  86.1756506  86.0169688  57.3470081  77.4039214  84.8081705  44.1231460
  78.3498318  84.6787913  44.1919878  77.0253459  84.0696366  44.6000888
  85.7150371  82.7296695  58.1262539  85.1989420  81.9455152  57.9392468
  86.5990320  82.4015412  58.2909058  83.3761098  76.4737711  54.0858352
  83.1785919  76.1652799  54.9701684  83.9860804  77.1999349  54.2156281
  91.3832433  87.0001658  57.2210293  92.1135821  86.7386947  57.7817996
  90.7739378  86.2630380  57.2612360  89.4647730  85.1409521  57.8184744
  88.7380893  85.0065486  57.2101235  89.0495017  85.4486350  58.6241462
  77.2877906  88.8599451  65.5832117  78.2080916  89.0378050  65.7772163
  77.2527489  87.9155496  65.4311816  75.5882131  82.7331681  44.0586345
  74.6813586  82.4364794  44.1349059  75.8658112  82.4361499  43.1920631
  66.5060071  84.0538044  54.5085391  66.1862856  83.2003353  54.2159765
  65.9593499  84.2686622  55.2643359  70.2839979  86.7700485  58.2254898
  70.5025989  87.7017593  58.2442932  70.6965753  86.4108460  59.0109702
  77.2044197  77.2768571  50.2130586  76.3944925  76.9315656  50.5885832
  77.8928613  76.9676114  50.8018198  79.1334745  76.3546617  51.8354883
  79.6865783  76.7742071  52.4944906  79.3704831  75.4282366  51.8777839
  75.1567844  82.3433691  67.6157647  75.0564571  83.2928048  67.5469738
  74.9389386  82.0151930  66.7433717  74.3580915  79.5918616  44.1998324
  75.2200079  79.9173514  44.4594142  74.5431260  78.8050112  43.6871390
  66.3748331  87.6740956  56.4778513  65.6811803  87.2594909  55.9648467
  67.1221322  87.7161492  55.8811932  82.5113552  78.4647143  51.3433547
  81.9312221  79.1231947  50.9611600  82.2449485  77.6424487  50.9320965
  80.9617118  77.8652200  53.5454868  81.4616897  77.9768735  52.7369186
  81.6052726  77.5613253  54.1855676  75.0199114  85.7730830  66.4322708
  74.5366196  86.5731190  66.6386598  75.1060053  85.7838775  65.4790152
  68.2885074  87.6059210  54.3544528  68.2655762  87.7046897  53.4026411
  68.5985710  88.4524360  54.6761694  70.9472452  89.6635365  58.4691142
  71.9015705  89.6319307  58.4021074  70.7484975  89.2025988  59.2841368
  71.5371834  88.2336481  61.0361940  72.3564723  88.7280559  61.0596777
  71.8108641  87.3168449  61.0079507  81.2938430  80.6247233  50.3989895
  80.4064285  80.9096884  50.1810090  81.7092419  80.4640996  49.5517172
  84.6452966  80.6493754  54.1144235  85.4213356  81.1390206  54.3868852
  83.9201100  81.0751808  54.5716104  87.0825525  81.3621373  55.1718175
  87.6770015  81.1217109  54.4611484  87.1552108  80.6428504  55.7991712
  69.3022680  95.2054984  55.4861340  69.1677148  94.4455385  54.9199338
  68.8854743  95.9295884  55.0190129  80.4381643  90.3891908  44.4937915
  81.1417494  90.5941910  45.1095571  79.7144292  90.9568670  44.7586999
  81.2679454  86.1401769  50.6140186  81.2114655  86.5970320  49.7747818
  81.8207796  85.3792453  50.4363028  85.0784260  81.9291501  51.4390305
  84.8221194  81.5288136  52.2698513  84.4537128  82.6435295  51.3140444
  89.3896597  84.6687574  53.9461597  88.8296155  84.7380763  54.7193159
  88.7840101  84.4928559  53.2261093  72.4591806  96.1024301  55.6979783
  72.3424190  97.0469734  55.5958473  71.6384253  95.7997863  56.0865582
  82.3468341  90.8274437  46.5436375  83.1813945  90.3955635  46.3613850
  82.1852684  90.6556451  47.4713270  82.0014233  87.3306550  47.9092715
  81.9463037  87.1650822  46.9681159  81.3760288  88.0382583  48.0654904
  66.7906748  82.5674615  61.7354137  67.4365612  82.0573568  62.2241362
  66.5823899  83.3043296  62.3097562  79.3160140  89.6355462  67.2346278
  80.1851300  89.8096114  66.8732912  78.8366892  90.4549879  67.1122007
  75.3110358  76.8314659  47.4878033  75.2989028  77.7756499  47.6446304
  76.2033780  76.6484805  47.1937494  73.4846320  96.7552563  58.9135711
  74.3873567  96.7876173  59.2302206  73.2583690  95.8253014  58.9282047
  75.2399922  95.5083550  55.5745790  74.2895553  95.5085411  55.4610162
  75.5432409  94.7616284  55.0581824  79.1262478  73.4257436  51.7423970
  78.3594874  72.8715922  51.8880652  79.5373183  73.4979305  52.6038122
  71.1304239  79.7142232  65.8329151  71.9935701  79.3579036  66.0432476
  70.5569650  79.3756126  66.5204555  90.9752616 101.3444088  56.6391552
  91.6131026 101.2250835  55.9354892  90.8573459 102.2924932  56.6979504
  87.7842322 101.2971516  56.5753077  87.4460834 101.1812581  55.6873612
  88.6532090 100.8962681  56.5554083  83.6429138 103.1506992  52.5649968
  83.0794003 103.0596929  51.7966256  83.5281533 102.3306897  53.0452460
  88.2662105 102.4506368  62.5339282  88.2550746 102.0559166  61.6619786
  88.4282745 101.7172440  63.1273054  81.1893570 104.6458184  55.4034188
  81.9814862 104.3049009  54.9880488  81.4290220 104.7553159  56.3236342
  89.2228697 106.8177960  47.8764433  88.5716676 107.4032041  47.4898447
  90.0173059 107.3484155  47.9359470  83.1484324 103.9067097  48.2751567
  83.9215200 103.3596084  48.1364443  83.5009723 104.7711347  48.4866029
  84.9869366 105.2343480  61.4818466  84.6959232 106.1389110  61.3665133
  85.6226351 105.2760007  62.1962536  85.9125573 102.6120328  58.0719826
  86.5089145 102.3876351  57.3576789  85.9700545 101.8705074  58.6745274
  85.4850602 100.0659763  45.9070017  85.7376122  99.5441285  45.1453480
  84.5475161  99.9025909  46.0096701  90.5293884  99.0695542  53.7144760
  91.3156974  98.6514965  53.3635177  90.7932589  99.9741634  53.8826409
  90.7003962 104.5068392  48.4133417  90.0649795 104.5803019  49.1254322
  90.3701368 105.0961991  47.7352496  95.9302312  99.0070775  54.6177739
  96.6627483  98.4369992  54.8515568  95.1741667  98.6192375  55.0584244
  85.2046890 101.9687869  48.1094392  85.0883148 101.2932773  48.7775476
  85.3149150 101.4820243  47.2926545  87.5478431 101.4298016  51.8141081
  87.1836638 100.9028637  52.5254003  88.4045547 101.0396486  51.6407567
  93.4527732  92.7192349  59.0772347  93.1211057  93.5887760  58.8533562
  92.8573345  92.4028633  59.7566378  87.1883918  96.4587916  46.8102430
  87.3558321  97.3268153  47.1772901  86.9981087  96.6215198  45.8863719
  89.9459251 104.9204895  58.4768260  89.6459974 105.8229934  58.3684067
  89.6010311 104.6537078  59.3289413  83.3971733 101.3718692  54.5104965
  82.4722229 101.2394906  54.7182656  83.6456146 102.1512911  55.0074907
  93.3456395  97.4387435  56.1565697  92.4373273  97.3702844  55.8624458
  93.2943991  97.9159380  56.9847523  87.1673139  98.9145574  47.7949097
  87.0472764  99.3602624  48.6334577  86.4725727  99.2630891  47.2362635
  80.7580544 101.0151965  55.3448754  80.8872925 101.2686444  56.2588165
  80.0777995 101.6079673  55.0253409  87.4197261  98.8577081  64.1000595
  86.6430595  99.4171001  64.0903459  88.0587824  99.3433864  64.6215465
  95.2118042  95.6403874  57.9343571  94.5692422  95.9336407  57.2883366
  94.7072970  95.5256794  58.7396768  92.8658205  99.3867047  48.6229431
  93.7776061  99.6194434  48.4477128  92.3567852  99.9704091  48.0604509
  85.6743633 101.6662534  63.6618562  86.4158318 102.2047578  63.3853385
  84.9680619 102.2928823  63.8190114  91.1498973 103.8091675  62.2590723
  91.5582329 103.3674085  61.5145356  90.4276234 103.2344302  62.5124916
  87.5030043  98.7464281  59.6324280  88.3491238  99.1703695  59.7758929
  87.4428681  98.0897906  60.3262843  91.4727788 104.3692865  56.0143012
  90.8436650 104.5338579  55.3119080  91.0853450 104.7834475  56.7853976
  90.6529488  96.4068650  61.2905454  90.4090420  97.1610710  60.7539729
  90.9289419  96.7853997  62.1252701  92.6067951 102.9507262  59.9682719
  92.8184846 103.5939022  59.2917100  92.5597699 102.1169579  59.5004649
  90.2094180  95.5625083  56.8719292  89.3478659  95.8606336  57.1636029
  90.2356615  95.7795482  55.9400324  87.0255749 104.1067273  53.2793097
  87.4894095 104.3854976  52.4897720  86.7612548 103.2050718  53.0966188
  83.9179830 103.6538755  56.2172860  84.4881188 104.0826023  55.5790345
  84.5087942 103.3721340  56.9157046  85.9624635 100.2290426  50.0882662
  86.6648679 100.6811469  50.5556589  85.6305264  99.5874245  50.7162555
  84.4104997  98.8202182  64.4633872  83.7803658  99.5018463  64.6969269
  84.3041085  98.7085264  63.5187010  79.7049969  98.4873978  55.3899796
  78.9149023  98.7431507  54.9139907  80.1961217  99.3022316  55.4951836
  93.7213779 105.8279218  58.1405077  94.5431223 105.4259405  57.8587758
  93.7176182 105.7247452  59.0921193  81.6564715  98.8518558  52.3483273
  80.8595878  98.9637252  52.8666768  81.4290307  99.1905210  51.4824163
  87.4870382 105.3763261  60.2965787  87.5514815 105.8383668  61.1323959
  86.7781306 104.7460626  60.4248097  77.9887672  98.7404469  57.8214787
  78.2395711  99.6251479  58.0872363  78.5247221  98.5609070  57.0489879
  87.2018400 107.0431368  50.1644768  87.0664075 107.8882904  50.5929615
  87.7428213 107.2450646  49.4010701  83.6885740  93.1222948  66.8259123
  83.2952685  92.5689147  67.5006767  84.5051880  93.4333527  67.2165640
  80.6547798 104.5606806  50.7372693  81.1672318 105.3550057  50.8878257
  81.3070510 103.8633097  50.6706294  82.4642682 107.6772563  52.8195446
  82.6409311 108.5990527  52.6316430  83.2599516 107.3630982  53.2489826
  86.6053701  94.5380827  64.4179379  87.3463414  95.1387980  64.3383842
  86.8371624  93.7958465  63.8597422  81.7495039  99.7237195  62.6957609
  81.6348554  98.8222452  62.9964708  80.8939556  99.9700891  62.3442426
  88.8286876 107.6654935  64.2945110  88.3850731 106.8791313  63.9766014
  89.4904090 107.8534085  63.6289000  83.5873998 109.1950736  58.8205788
  84.1381423 109.0667800  58.0482782  82.7485474 109.4945626  58.4700681
  87.3841169 105.4601864  63.1650019  87.9169506 104.6990153  62.9349327
  86.8555250 105.1675516  63.9074174  90.5510864  90.5661930  58.6943661
  90.2075133  91.4563572  58.6182772  90.9189826  90.3763588  57.8313246
  78.6196714 102.8895461  51.5132263  79.4571936 103.2992469  51.2965971
  78.7974982 101.9494903  51.4832457  90.5161146 100.5570541  47.2016096
  90.0007770 101.3275146  47.4404484  90.2438455  99.8835678  47.8249158
  88.1008257  95.4020242  52.2601335  87.2449854  95.0127093  52.0806973
  88.5135209  95.4812203  51.4001120  89.6307404  92.9366585  56.6592894
  89.1272200  92.8996721  55.8460700  89.9238011  93.8459328  56.7189551
  85.8750290  93.0205315  55.6659076  86.7403287  92.8248124  55.3064965
  85.9427799  92.7915667  56.5928433  95.4895421 103.3102896  49.1369270
  94.7124863 102.9714056  48.6924432  96.1686902 103.3155519  48.4624235
  90.3047450  98.4297633  49.0275877  89.9997585  98.7443783  49.8786020
  91.2577892  98.5079053  49.0703210  88.7493881 104.5887857  50.6768831
  88.2215243 103.8540616  50.3642069  88.2481384 105.3662533  50.4308800
  93.7286727 102.7836877  55.7935878  93.0710402 103.4736139  55.8816006
  94.5327127 103.1733309  56.1369864  83.4812609  95.2507523  53.0375443
  84.0556361  95.0282705  52.3048636  84.0683591  95.3196218  53.7904044
  92.5392186 101.1381250  53.8439819  93.0524068 101.7711242  54.3461529
  93.1893410 100.5382445  53.4783179  83.8082196  97.2811984  47.0571328
  82.9719508  97.6186671  47.3780603  83.6686966  97.1460964  46.1198465
  85.7835277  92.1248772  51.7650512  85.1299689  91.8097789  51.1407127
  85.7415751  91.5024512  52.4910335  86.8946482 102.4068067  43.6803804
  85.9873543 102.1757321  43.8794953  87.3917514 101.6105686  43.8677786
  89.0173017  98.6130706  56.0898160  88.0995578  98.8345653  55.9319848
  89.4333161  98.6877016  55.2309867  89.8008065 100.0122121  51.2200840
  90.5479884 100.5243518  50.9107962  90.0699654  99.6906174  52.0805234
  88.0734715 102.5080662  48.2027794  87.1645934 102.2239695  48.3000264
  88.1029799 102.9279740  47.3431101  93.3053982 106.1187251  51.9718962
  92.8516310 105.2778161  52.0284152  92.6747949 106.7548650  52.3093742
  92.2486902  97.0479237  53.2019629  91.5109659  96.5356624  53.5329872
  92.5013676  96.6079619  52.3902906  92.3498529  89.8255489  53.7961399
  92.6557406  88.9652853  53.5087314  93.0751134  90.4173110  53.5960393
  78.6422885 100.2286176  52.1842997  78.4447285  99.6355537  51.4594063
  78.0869549  99.9238386  52.9018935  86.6219609 100.1209283  54.3037590
  86.6768219  99.1683119  54.2280066  85.8110811 100.2768722  54.7878888
  87.7710803 104.0489406  45.5415873  87.3330233 103.3325265  45.0821510
  88.5121244 104.2765520  44.9800964  84.5611969  98.7386342  52.0627969
  83.7479835  99.0380513  52.4693161  85.0570963  98.3442031  52.7802451
  86.7120547 108.7344099  53.9962233  86.6696726 108.9604946  53.0670765
  87.6283246 108.5007474  54.1448034  90.1586181  99.2028167  60.8942863
  90.5135568  99.4299640  61.7537328  90.8058312  99.5346544  60.2720118
  95.8883918 102.3246603  51.5992192  95.7501816 102.5148199  50.6713381
  95.5320136 103.0865985  52.0560243  84.0526044  96.3104698  57.6789204
  84.6925423  96.1693457  56.9812167  83.2203574  96.0239211  57.3027806
  84.8286348 105.6107128  53.7924196  85.6226946 105.1157448  53.5906771
  84.1178040 105.0824991  53.4291902  89.6481192 107.9925224  58.1436564
  89.7018214 108.5616160  58.9114280  88.7795973 108.1627109  57.7790601
  81.1369111  99.7550210  49.8683949  80.2066699  99.6934665  50.0853911
  81.2326583  99.2326163  49.0720590  81.0554660  96.2805023  52.4562190
  81.3161477  97.1950356  52.3471351  81.8771833  95.8129465  52.6058803
  82.5279586  97.6942780  59.6261015  83.2002639  97.4860142  58.9773664
  81.7009372  97.4964866  59.1866247  88.4305158  94.3204721  61.6426676
  87.7833073  95.0194671  61.5491152  89.2006173  94.7540865  62.0102924
  91.8383955 104.5853573  64.7177229  91.6869462 104.3564125  63.8007313
  91.8288635 105.5424174  64.7308574  88.6069292 102.1585486  59.7023496
  89.5361352 102.3096645  59.5292463  88.1860322 102.2469507  58.8472142
  87.4057624 106.1836150  57.4722033  87.2668709 105.8154935  58.3447971
  86.6172220 106.6983790  57.3005991  88.9562839 105.5617753  54.8610871
  88.6212671 105.5218523  55.7568521  88.4566784 104.8962469  54.3881281
  82.9307083 100.9685383  60.3863452  82.7926881 100.2365622  60.9874991
  83.8412006 100.8794283  60.1047640  91.8922030 102.9073787  45.1347931
  91.2751201 102.1820615  45.0380983  91.4238519 103.6683148  44.7915005
  85.5589383 100.6805342  59.8747132  86.2689002 100.0398534  59.8333750
  85.5158692 100.9318237  60.7973312  84.2718317  97.6670560  61.6942771
  83.7355674  97.2161299  62.3464368  83.6835026  97.8016469  60.9513236
  83.6820576  97.1259212  44.2569235  82.8050043  97.0048012  43.8931482
  84.1578329  96.3345290  44.0048124  93.5493569 105.5812280  61.0267691
  92.6620348 105.2438201  61.1494089  94.1192120 104.8495311  61.2636456
  75.2022716 101.9136371  54.3510742  75.8893756 101.5998101  53.7631757
  75.0470845 102.8177736  54.0777993  80.0057439  96.8026568  58.7795766
  79.9215627  96.1952237  58.0446176  79.1840145  97.2935586  58.7805262
  86.8684502 109.4785502  51.5031755  86.0852024 110.0207182  51.5969980
  87.5677248 109.9959482  51.9025997  90.1781153  95.2880131  54.1465961
  90.6749852  94.5350094  53.8267031  89.4068134  95.3244448  53.5809170
  98.0310910 100.9920497  55.7884252  98.0200786 101.8745212  55.4178185
  97.1628289 100.6392048  55.5938789  91.2610933 104.0451819  51.7204384
  90.3267212 104.1653281  51.5509088  91.4387602 103.1424285  51.4564394
  86.7616121  97.4297514  53.8737645  86.3913909  96.8768555  54.5618551
  87.2575214  96.8255648  53.3212645  94.6483485  99.8869138  52.2554418
  95.1143937 100.7197129  52.1814721  95.0990985  99.4214119  52.9599677
  84.5905320 107.8895009  60.9692663  85.2914779 108.5231492  61.1222058
  84.1200435 108.2309741  60.2088303  92.7159716 106.2312959  49.2540570
  92.9919560 106.1169554  50.1634444  91.8464214 105.8330444  49.2152743
  92.6200147  92.2549725  56.2945320  91.7063227  92.4853952  56.4627527
  93.0493249  92.3388169  57.1459352  92.3906606 100.4439617  58.7945214
  91.7378056 100.6915524  58.1397666  92.7686986  99.6303755  58.4607691
  88.4394179 101.1859428  65.2811251  87.7634816 101.0853557  65.9513626
  89.2621813 101.0298642  65.7447248  80.1873038 107.4231364  57.9023766
  80.7726475 106.6775052  58.0351670  79.9897876 107.7335321  58.7860430
  83.0411693 110.4582612  52.9186208  82.3722068 110.9428739  52.4350248
  82.9024563 110.7051832  53.8329587  74.7790693  99.9936965  56.6228209
  74.8174792  99.4600555  57.4165327  74.2730985  99.4672170  56.0039186
  82.1581455  94.8401505  60.1190751  82.2222781  95.7016336  59.7068149
  82.0948575  94.2275507  59.3863110  81.6333727  96.9124638  63.7663786
  82.2605766  96.5301715  64.3801310  80.7761646  96.6938840  64.1319478
  78.4099270  98.7201067  49.6982141  78.7052711  97.8111745  49.6449194
  77.5087306  98.6988806  49.3763143  81.9393517  96.7957063  55.6809689
  81.2180103  97.4093031  55.5417162  82.7286773  97.3314828  55.6026335
  84.7419831  94.1311490  61.9550341  85.2654233  94.3773786  62.7176650
  84.5232164  94.9631525  61.5353478  80.1387112  96.4015164  49.8221466
  79.8099818  95.5212543  49.6396572  80.4926482  96.3462833  50.7097855
  89.3866691 108.0370067  54.3316451  89.2391653 107.1086775  54.5124021
  90.2120184 108.0590158  53.8473526  83.2528935  96.6888134  50.1896943
  83.5925007  97.2174055  49.4675552  83.7001055  97.0268540  50.9655510
  85.9472376  95.0725185  59.6400011  85.6069196  94.2732998  60.0420691
  85.2411382  95.3726896  59.0676845  86.5988848  92.1574497  58.0927334
  87.4214917  91.6834976  57.9706225  86.8426911  92.9364981  58.5926021
  85.2397082  95.1862756  48.3890236  85.9605445  95.5644009  47.8853953
  84.6162386  95.9051633  48.4925214  89.3828205  95.8907905  49.3248568
  89.5991819  96.7732543  49.0237397  88.9022272  95.4994118  48.5954210
  84.1227426  98.8493618  55.9019313  83.9772007  99.1633921  56.7943595
  83.6452630  99.4678518  55.3490212  85.9823809  95.8396166  55.9500203
  85.9685378  94.9437259  55.6132501  86.6996237  95.8466830  56.5838489
  87.8349940  96.2733506  57.9953330  87.5767718  97.1950577  57.9937660
  87.3034980  95.8763941  58.6853794  78.5973089 101.3898962  58.8406974
  78.0526557 102.1658770  58.9727249  79.4752438 101.7369767  58.6826096
  85.3860705  94.7210546  51.2187773  85.5076616  93.7927192  51.4178660
  85.0962748  94.7349232  50.3066088  88.2551896  92.4065457  54.3554493
  88.2773592  92.4704790  53.4006472  88.6719955  91.5669965  54.5494999
  98.6335520 102.1420716  52.3933715  99.0766666 101.3928041  51.9952838
  97.7562030 102.1330853  52.0107447  79.3839110 100.5168859  61.7337131
  78.6420846 100.6651494  62.3201761  79.0631855 100.7777124  60.8703880
  79.8295724 108.4034287  53.7647526  80.6553744 108.1038059  53.3846169
  79.4789776 107.6341910  54.2137314  84.7977257 107.7560756  55.8345199
  84.1757267 107.0931461  55.5347427  85.4682124 107.7821888  55.1518847
  78.0304329 106.3220614  54.7236459  77.1936237 105.8942788  54.5420461
  78.0027975 106.5153057  55.6607250  84.8701785  96.2342544  65.4277705
  84.9189940  97.1104666  65.0455475  85.4124299  95.6919937  64.8549349
  95.4754505 103.6276133  62.0211571  95.5252510 103.4626141  62.9627094
  95.3668429 102.7603392  61.6309452  84.3590764 106.3064679  49.3103660
  84.5078884 106.9900143  48.6570333  85.1657208 106.2869769  49.8253116
  92.7658268  99.6107061  63.3370878  93.6668131  99.4713526  63.0454875
  92.8406242  99.7761516  64.2769055  87.1001073  96.9873916  62.1824064
  86.2304383  97.2807482  61.9106653  87.3360554  97.5714361  62.9031328
  95.2259891 101.1705689  60.7333650  95.7014012 101.3633336  59.9252502
  94.3025456 101.2264875  60.4877034  82.1143397 102.3329857  50.3164729
  81.8689439 101.4292187  50.5144939  82.2839312 102.3347007  49.3744207
  89.8040107  93.2053533  59.6989484  90.3222051  93.9414560  59.3735973
  89.4495240  93.5117526  60.5336243  81.3839045  98.0658214  47.8150890
  80.6908290  98.1402569  47.1590926  81.1390797  97.3018558  48.3372407
  90.0552701  89.6253816  55.2190381  90.3354455  88.9577005  55.8450807
  90.8403308  89.8182911  54.7065045  87.8586170 108.8012809  46.7815407
  87.2860137 109.4202997  46.3285879  88.4318963 109.3512171  47.3155329
  93.9261560  98.0471450  58.9661956  94.8778982  98.1469547  58.9874180
  93.7565010  97.2549718  59.4760040  91.9475939  95.1327033  59.1521357
  91.3525871  95.4132045  58.4567846  91.6625636  95.6220934  59.9238098
  96.4049637 101.2677569  58.0804256  96.3725957 100.3293570  58.2663940
  97.0150261 101.3461606  57.3470081  88.2432968 100.1373622  44.1231460
  89.1892073 100.0079830  44.1919878  87.8647213  99.3988284  44.6000888
  96.5544126  98.0588613  58.1262539  96.0383174  97.2747069  57.9392468
  97.4384074  97.7307329  58.2909058  94.2154853  91.8029628  54.0858352
  94.0179674  91.4944716  54.9701684  94.8254558  92.5291267  54.2156281
 100.3041484 100.4701439  57.8184744  99.5774648 100.3357404  57.2101235
  99.8888771 100.7778267  58.6241462  88.1271661 104.1891368  65.5832117
  89.0474670 104.3669967  65.7772163  88.0921244 103.2447414  65.4311816
  86.4275885  98.0623599  44.0586345  85.5207341  97.7656711  44.1349059
  86.7051866  97.7653417  43.1920631  77.3453826  99.3829962  54.5085391
  77.0256610  98.5295270  54.2159765  76.7987254  99.5978540  55.2643359
  81.1233733 102.0992403  58.2254898  81.3419743 103.0309511  58.2442932
  81.5359507 101.7400377  59.0109702  88.0437951  92.6060488  50.2130586
  87.2338679  92.2607573  50.5885832  88.7322368  92.2968032  50.8018198
  89.9728499  91.6838535  51.8354883  90.5259538  92.1033989  52.4944906
  90.2098586  90.7574283  51.8777839  85.9961599  97.6725609  67.6157647
  85.8958325  98.6219966  67.5469738  85.7783141  97.3443848  66.7433717
  85.1974670  94.9210534  44.1998324  86.0593834  95.2465432  44.4594142
  85.3825014  94.1342030  43.6871390  77.2142086 103.0032873  56.4778513
  76.5205557 102.5886826  55.9648467  77.9615077 103.0453410  55.8811932
  93.3507306  93.7939060  51.3433547  92.7705975  94.4523864  50.9611600
  93.0843239  92.9716405  50.9320965  91.8010873  93.1944118  53.5454868
  92.3010651  93.3060652  52.7369186  92.4446481  92.8905171  54.1855676
  85.8592869 101.1022748  66.4322708  85.3759950 101.9023108  66.6386598
  85.9453808 101.1130692  65.4790152  79.1278828 102.9351127  54.3544528
  79.1049516 103.0338815  53.4026411  79.4379465 103.7816278  54.6761694
  81.7866206 104.9927282  58.4691142  82.7409460 104.9611225  58.4021074
  81.5878730 104.5317906  59.2841368  82.3765588 103.5628398  61.0361940
  83.1958477 104.0572477  61.0596777  82.6502396 102.6460366  61.0079507
  92.1332184  95.9539151  50.3989895  91.2458039  96.2388801  50.1810090
  92.5486173  95.7932914  49.5517172  95.4846721  95.9785672  54.1144235
  96.2607111  96.4682124  54.3868852  94.7594855  96.4043726  54.5716104
  97.9219279  96.6913291  55.1718175  98.5163770  96.4509027  54.4611484
  97.9945863  95.9720421  55.7991712  80.1416435 110.5346902  55.4861340
  80.0070903 109.7747303  54.9199338  79.7248497 111.2587802  55.0190129
  91.2775398 105.7183825  44.4937915  91.9811248 105.9233828  45.1095571
  90.5538047 106.2860587  44.7586999  92.1073208 101.4693687  50.6140186
  92.0508410 101.9262238  49.7747818  92.6601551 100.7084371  50.4363028
  95.9178014  97.2583418  51.4390305  95.6614948  96.8580054  52.2698513
  95.2930882  97.9727212  51.3140444 100.2290352  99.9979492  53.9461597
  99.6689910 100.0672681  54.7193159  99.6233855  99.8220476  53.2261093
  83.2985561 111.4316219  55.6979783  83.1817945 112.3761651  55.5958473
  82.4778007 111.1289780  56.0865582  93.1862095 106.1566355  46.5436375
  94.0207699 105.7247553  46.3613850  93.0246438 105.9848368  47.4713270
  92.8407987 102.6598468  47.9092715  92.7856791 102.4942739  46.9681159
  92.2154043 103.3674501  48.0654904  77.6300502  97.8966532  61.7354137
  78.2759366  97.3865486  62.2241362  77.4217654  98.6335214  62.3097562
  90.1553895 104.9647380  67.2346278  91.0245054 105.1388032  66.8732912
  89.6760646 105.7841797  67.1122007  86.1504113  92.1606577  47.4878033
  86.1382783  93.1048417  47.6446304  87.0427535  91.9776722  47.1937494
  84.3240075 112.0844481  58.9135711  85.2267322 112.1168091  59.2302206
  84.0977445 111.1544932  58.9282047  86.0793677 110.8375467  55.5745790
  85.1289308 110.8377329  55.4610162  86.3826163 110.0908202  55.0581824
  89.9656232  88.7549353  51.7423970  89.1988628  88.2007840  51.8880652
  90.3766937  88.8271222  52.6038122  81.9697993  95.0434149  65.8329151
  82.8329455  94.6870954  66.0432476  81.3963404  94.7048044  66.5204555
  36.7783845   1.7046622  43.3636859  37.4162255   1.5853370  42.6600199
  36.6604688   2.6527466  43.4224811  33.5873551   1.6574050  43.2998384
  33.2492063   1.5415115  42.4118918  34.4563319   1.2565215  43.2799390
  29.4460367   3.5109527  39.2895275  28.8825232   3.4199464  38.5211562
  29.3312762   2.6909431  39.7697767  34.0693334   2.8108902  49.2584589
  34.0581975   2.4161700  48.3865093  34.2313973   2.0774975  49.8518361
  26.9924799   5.0060718  42.1279495  27.7846091   4.6651543  41.7125794
  27.2321449   5.1155693  43.0481648  35.0259925   7.1780494  34.6009739
  34.3747905   7.7634575  34.2143753  35.8204288   7.7086689  34.6604777
  28.9515553   4.2669632  34.9996874  29.7246429   3.7198619  34.8609750
  29.3040951   5.1313881  35.2111335  30.7900595   5.5946014  48.2063773
  30.4990461   6.4991645  48.0910439  31.4257579   5.6362541  48.9207843
  31.7156802   2.9722862  44.7965133  32.3120374   2.7478885  44.0822096
  31.7731774   2.2307608  45.3990581  31.2881830   0.4262298  32.6315324
  31.5407351  -0.0956181  31.8698787  30.3506389   0.2628443  32.7342007
  36.3325113  -0.5701924  40.4390067  37.1188202  -0.9882501  40.0880484
  36.5963818   0.3344168  40.6071715  36.5035191   4.8670926  35.1378724
  35.8681024   4.9405553  35.8499628  36.1732597   5.4564525  34.4597803
  41.7333540  -0.6326691  41.3423045  42.4658712  -1.2027474  41.5760875
  40.9772896  -1.0205090  41.7829551  31.0078119   2.3290404  34.8339699
  30.8914377   1.6535307  35.5020783  31.1180379   1.8422778  34.0171852
  33.3509660   1.7900551  38.5386388  32.9867867   1.2631172  39.2499309
  34.2076776   1.3999020  38.3652873  39.2558961  -6.9205117  45.8017654
  38.9242285  -6.0509706  45.5778869  38.6604574  -7.2368833  46.4811684
  32.9915147  -3.1809550  33.5347736  33.1589549  -2.3129313  33.9018207
  32.8012316  -3.0182268  32.6109026  35.7490480   5.2807429  45.2013567
  35.4491203   6.1832468  45.0929374  35.4041540   5.0139613  46.0534720
  29.2002962   1.7321226  41.2350271  28.2753458   1.5997440  41.4427963
  29.4487375   2.5115445  41.7320214  39.1487624  -2.2010030  42.8811004
  38.2404501  -2.2694622  42.5869765  39.0975220  -1.7238086  43.7092830
  32.9704368  -0.7251892  34.5194403  32.8503993  -0.2794841  35.3579884
  32.2756956  -0.3766574  33.9607941  26.5611773   1.3754500  42.0694060
  26.6904154   1.6288979  42.9833472  25.8809224   1.9682208  41.7498715
  30.7311260  12.0451750  38.1684534  30.6535290  12.9959575  38.2473015
  30.1272904  11.6997622  38.8259461  33.2228490  -0.7820385  50.8245901
  32.4461824  -0.2226465  50.8148766  33.8619053  -0.2963602  51.3460771
  41.0149270  -3.9993592  44.6588878  40.3723651  -3.7061059  44.0128673
  40.5104199  -4.1140672  45.4642075  38.6689434  -0.2530419  35.3474737
  39.5807290  -0.0203032  35.1722435  38.1599081   0.3306625  34.7849816
  31.4774862   2.0265068  50.3863868  32.2189546   2.5650112  50.1098692
  30.7711848   2.6531357  50.5435420  36.9530202   4.1694209  48.9836030
  37.3613558   3.7276619  48.2390662  36.2307463   3.5946836  49.2370223
  33.3061272  -0.8933184  46.3569587  34.1522467  -0.4693771  46.5004236
  33.2459909  -1.5499560  47.0508150  37.2759016   4.7295400  42.7388319
  36.6467879   4.8941114  42.0364387  36.8884678   5.1437009  43.5099283
  41.1548248   5.6649837  40.0932682  40.4699286   6.0448739  39.5429716
  41.2392098   6.2745164  40.8264630  36.4560717  -3.2328816  48.0150760
  36.2121649  -2.4786755  47.4785036  36.7320648  -2.8543468  48.8498007
  38.4099180   3.3109796  46.6928026  38.6216075   3.9541556  46.0162407
  38.3628928   2.4772113  46.2249956  36.0125409  -4.0772383  43.5964598
  35.1509888  -3.7791129  43.8881336  36.0387843  -3.8601984  42.6645631
  32.8286978   4.4669808  40.0038404  33.2925324   4.7457511  39.2143026
  32.5643776   3.5653252  39.8211495  29.7211059   4.0141289  42.9418167
  30.2912416   4.4428558  42.3035652  30.3119171   3.7323874  43.6402353
  31.7655864   0.5892960  36.8127969  32.4679908   1.0414004  37.2801895
  31.4336493  -0.0523221  37.4407862  30.2136226  -0.8195283  51.1879178
  29.5834886  -0.1379003  51.4214575  30.1072314  -0.9312202  50.2432317
  39.5245008   6.1881752  44.8650383  40.3462452   5.7861939  44.5833065
  39.5207411   6.0849986  45.8166499  27.4595944  -0.7878908  39.0728579
  26.6627107  -0.6760214  39.5912075  27.2321536  -0.4492256  38.2069470
  33.2901611   5.7365795  47.0211094  33.3546044   6.1986202  47.8569266
  32.5812535   5.1063160  47.1493404  47.6151001   2.5320500  41.2135355
  46.8614709   1.9627898  41.0579359  47.7498542   2.4983165  42.1605990
  33.0049629   7.4033903  36.8890074  32.8695304   8.2485438  37.3174922
  33.5459441   7.6053180  36.1256008  26.4579026   4.9209341  37.4617999
  26.9703547   5.7152591  37.6123564  27.1101739   4.2235631  37.3951601
  28.2673911   8.0375097  39.5440752  28.4440539   8.9593062  39.3561736
  29.0630745   7.7233516  39.9735132  32.4084930  -5.1016638  51.1424686
  33.1494643  -4.5009485  51.0629148  32.6402852  -5.8439001  50.5842729
  27.5526268   0.0839729  49.4202916  27.4379783  -0.8175014  49.7210015
  26.6970785   0.3303426  49.0687732  34.6318105   8.0257469  51.0190416
  34.1881959   7.2393848  50.7011321  35.2935319   8.2136620  50.3534307
  29.3905226   9.5553271  45.5451095  29.9412652   9.4270334  44.7728089
  28.5516702   9.8548160  45.1945988  36.7299343   8.3060269  49.0471818
  36.7117819   9.1269150  48.5552087  37.6519263   8.1814344  49.2721959
  33.1872398   5.8204399  49.8895326  33.7200734   5.0592687  49.6594634
  32.6586479   5.5278050  50.6319480  24.4227943   3.2497995  38.2377570
  25.2603165   3.6595003  38.0211278  24.6006211   2.3097437  38.2077764
  36.3192375   0.9173076  33.9261403  35.8038999   1.6877680  34.1649790
  36.0469684   0.2438212  34.5494464  33.9039486  -4.2377224  38.9846641
  33.0481083  -4.6270373  38.8052280  34.3166438  -4.1585263  38.1246427
  35.4338633  -6.7030880  43.3838201  34.9303428  -6.7400745  42.5706006
  35.7269240  -5.7938138  43.4434858  41.2926649   3.6705430  35.8614576
  40.5156092   3.3316590  35.4169738  41.9718130   3.6758053  35.1869541
  36.1078678  -1.2099832  35.7521184  35.8028814  -0.8953683  36.6031327
  37.0609121  -1.1318412  35.7948517  34.5525110   4.9490391  37.4014138
  34.0246472   4.2143151  37.0887375  34.0512613   5.7265067  37.1554106
  39.5317956   3.1439412  42.5181184  38.8741631   3.8338673  42.6061313
  40.3358355   3.5335843  42.8615171  38.3423415   1.4983784  40.5685126
  38.8555297   2.1313776  41.0706836  38.9924639   0.8984980  40.2028486
  29.6113425  -2.3585482  33.7816635  28.7750737  -2.0210795  34.1025909
  29.4718195  -2.4936502  32.8443772  32.6977710   2.7670601  30.4049111
  31.7904772   2.5359855  30.6040260  33.1948742   1.9708221  30.5923093
  35.6045789  11.4768108  33.3245797  34.9307488  11.7799805  33.9330755
  35.9911611  12.2797189  32.9751254  34.8204246  -1.0266760  42.8143466
  33.9026807  -0.8051813  42.6565155  35.2364390  -0.9520450  41.9555174
  35.6039294   0.3724655  37.9446147  36.3511113   0.8846053  37.6353269
  35.8730883   0.0508708  38.8050540  33.8765944   2.8683196  34.9273101
  32.9677163   2.5842229  35.0245571  33.9061028   3.2882275  34.0676408
  39.1085211   6.4789786  38.6964269  38.6547538   5.6380696  38.7529459
  38.4779178   7.1151184  39.0339049  38.0518131  -2.5918228  39.9264936
  37.3140888  -3.1040842  40.2575179  38.3044904  -3.0317847  39.1148213
  37.5518150   8.3166282  39.6314087  37.8441125   8.8771339  38.9126452
  38.0616771   8.6094843  40.3867246  24.4454114   0.5888710  38.9088303
  24.2478514  -0.0041929  38.1839370  23.8900778   0.2840920  39.6264242
  32.4250838   0.4811817  41.0282896  32.4799448  -0.4714347  40.9525373
  31.6142040   0.6371256  41.5124195  33.5742032   4.4091940  32.2661180
  33.1361462   3.6927799  31.8066817  34.3152473   4.6368055  31.7046271
  30.3643198  -0.9011124  38.7873275  29.5511063  -0.6016953  39.1938467
  30.8602192  -1.2955435  39.5047758  32.5151776   9.0946633  40.7207540
  32.4727954   9.3207480  39.7916072  33.4314475   8.8610008  40.8693341
  35.9617409  -0.4369299  47.6188169  36.3166797  -0.2097826  48.4782635
  36.6089541  -0.1050922  46.9965424  41.6915146   2.6849137  38.3237498
  41.5533045   2.8750733  37.3958687  41.3351365   3.4468520  38.7805549
  41.7184526   4.7525664  43.3348770  42.1521033   4.6600953  44.1831824
  42.4316107   4.7283164  42.6968786  30.6317576   5.9709662  40.5169503
  31.4258175   5.4759983  40.3152078  29.9209269   5.4427526  40.1537208
  35.4512421   8.3527758  44.8681870  35.5049443   8.9218694  45.6359586
  34.5827202   8.5229643  44.5035907  26.9400340   0.1152744  36.5929255
  26.0097928   0.0537200  36.8099217  27.0357812  -0.4071303  35.7965897
  28.3310814  -1.9454686  46.3506322  29.0033868  -2.1537324  45.7018970
  27.5040601  -2.1432600  45.9111554  42.5800076   4.7949365  45.8681655
  42.7735966   5.6995175  46.1140930  42.4800694   4.3356784  46.7020240
  34.2336386  -5.3192745  48.3671982  33.5864301  -4.6202795  48.2736459
  35.0037402  -4.8856601  48.7348231  37.6415184   4.9456107  51.4422536
  37.4900691   4.7166659  50.5252619  37.6319864   5.9026709  51.4553881
  34.4100521   2.5188020  46.4268802  35.3392581   2.6699180  46.2537769
  33.9891551   2.6072041  45.5717449  33.2088852   6.5438684  44.1967340
  33.0699938   6.1757469  45.0693278  32.4203449   7.0586324  44.0251298
  33.8037004  11.6447781  35.5392876  33.9788760  11.1735824  36.3538499
  33.1169792  12.2713547  35.7674137  34.7594068   5.9220287  41.5856178
  34.4243900   5.8821057  42.4813827  34.2598013   5.2565003  41.1126588
  28.7338312   1.3287917  47.1108759  28.5958110   0.5968156  47.7120298
  29.6443235   1.2396817  46.8292946  37.6953259   3.2676321  31.8593237
  37.0782430   2.5423150  31.7626290  37.2269748   4.0285682  31.5160311
  31.3620612   1.0407876  46.5992438  32.0720231   0.4001069  46.5579057
  31.3189920   1.2920771  47.5218619  39.3507391   7.9775230  49.5199018
  39.2919937   7.2934450  48.8529601  39.7526909   8.7194220  49.0679644
  30.0749546  -1.9726906  48.4188078  29.5386903  -2.4236167  49.0709674
  29.4866255  -1.8380997  47.6758542  28.3698090  14.7937144  42.3132736
  28.6094688  15.4255668  42.9911755  27.5267286  14.4425184  42.5998096
  39.3524798   5.9414814  47.7512997  38.4651577   5.6040736  47.8739396
  39.9223349   5.2097845  47.9881763  21.0053945   2.2738905  41.0756049
  21.6924985   1.9600636  40.4877064  20.8502074   3.1780270  40.8023300
  32.8825952  10.6016266  44.7174240  32.8096123  11.4071238  45.2293545
  32.4403345  10.8008232  43.8922262  32.6715731   9.8388036  38.2277062
  31.8883253  10.3809716  38.3215287  33.3708476  10.3562016  38.6271303
  35.9812381  -4.3517334  40.8711267  36.4781081  -5.1047372  40.5512338
  35.2099363  -4.3153018  40.3054477  43.8342139   1.3523031  42.5129559
  43.8232015   2.2347747  42.1423492  42.9659518   0.9994582  42.3184096
  35.3424635  10.5003100  46.8732399  36.0552607  11.1350565  46.8008301
  34.8514664  10.5966966  46.0572401  37.0642162   4.4054353  38.4449691
  36.1298441   4.5255815  38.2754395  37.2418830   3.5026820  38.1809701
  32.5647350  -2.2099951  40.5982952  32.1945138  -2.7628911  41.2863858
  33.0606443  -2.8141818  40.0457952  40.4514713   0.2471672  38.9799725
  40.9175166   1.0799664  38.9060028  40.9022214  -0.2183346  39.6844983
  30.3936549   8.2497544  47.6937970  31.0946008   8.8834027  47.8467364
  29.9231664   8.5912275  46.9333609  38.5190944   6.5915493  35.9785877
  38.7950788   6.4772088  36.8879751  37.6495443   6.1932978  35.9398050
  38.4231376  -7.3847741  43.0190626  37.5094456  -7.1543514  43.1872833
  38.8524478  -7.3009297  43.8704659  38.1937835   0.8042151  45.5190520
  37.5409285   1.0518058  44.8642973  38.5718214  -0.0093711  45.1852998
  35.1545008  10.8401844  39.6218691  35.3367403  10.0223500  40.0846443
  35.9777994  11.0569536  39.1843581  35.4887174   9.7670029  36.8833739
  36.0174940   9.2562484  36.2703901  35.7515394   9.4512560  37.7479272
  34.2425408   1.5461962  52.0056557  33.5666045   1.4456091  52.6758933
  35.0653042   1.3901176  52.4692555  25.9904267   7.7833899  44.6269073
  26.5757704   7.0377587  44.7596977  25.7929105   8.0937855  45.5105737
  28.8442922  10.8185146  39.6431515  28.1753297  11.3031274  39.1595555
  28.7055792  11.0654366  40.5574894  32.9848191  12.8528890  46.2414173
  33.5366499  13.0160511  47.0063259  33.3254384  13.4433327  45.5694198
  37.8359065   7.6790147  52.0962828  38.3798969   8.2920105  51.6017783
  37.2545910   8.2369725  52.6129841  36.1216578  10.8010865  43.2277856
  35.9967717  10.0000605  42.7188801  36.7795669  11.2957058  42.7391825
  38.1851486   8.6019885  44.8557406  37.2381822   8.4825236  44.7835732
  38.5334259   7.7142383  44.9383667  35.1897919   8.3972601  41.0561758
  35.0422882   7.4689309  41.2369328  36.0151413   8.4192692  40.5718833
  29.0560164  -2.9509332  36.9142250  29.3956236  -2.4223410  36.1920858
  29.5032284  -2.6128925  37.6900817  38.7932041   9.2201160  42.1426631
  39.7178589   9.0144021  42.0051082  38.6247345   8.9717561  43.0515972
  31.0428311  -4.4534710  35.1135543  31.7636673  -4.0753457  34.6099260
  30.4193615  -3.7345833  35.2170521  35.1859434  -3.7489561  36.0493875
  35.4023048  -2.8664923  35.7482703  34.7053501  -4.1403348  35.3199517
  29.9258655  -0.7903848  42.6264620  29.7803236  -0.4763545  43.5188901
  29.4483859  -0.1718947  42.0735518  31.7855038  -3.8001300  42.6745509
  31.7716607  -4.6960206  42.3377807  32.5027466  -3.7930636  43.3083795
  33.6381169  -3.3663960  44.7198637  33.3798947  -2.4446889  44.7182967
  33.1066209  -3.7633525  45.4099101  38.5827358   9.7386828  37.4988722
  38.7564235   9.1733250  36.7462575  39.0756249  10.5387722  37.3168212
  24.4004317   1.7501497  45.5652281  23.8557785   2.5261305  45.6972555
  25.2783667   2.0972301  45.4071402  44.4366749   2.5023251  39.1179022
  44.8797895   1.7530576  38.7198145  43.5593259   2.4933387  38.7352754
  39.5702530   9.0553592  34.5985620  40.2653435   9.6760285  34.8172935
  39.9125680   8.2048943  34.8737998  25.1870339   0.8771393  48.4582438
  24.4452075   1.0254028  49.0447068  24.8663083   1.1379659  47.5949187
  41.4693953   6.5053297  36.1272951  41.9945277   6.8440570  35.4022271
  41.3816306   5.5700313  35.9436086  33.1314002  10.4187371  48.2562828
  33.4401128  10.1736518  49.1285527  33.9289484  10.6234010  47.7681698
  33.1534614  12.5725281  40.4868204  32.7139604  12.0801659  41.1801061
  33.9042731  12.0298248  40.2460280  25.6326953   8.7636822  40.4892832
  26.4584973   8.4640594  40.1091476  25.2821005   7.9944444  40.9382621
  30.6008486   8.1163290  42.5590506  29.9788495   7.4533995  42.2592734
  31.2713353   8.1424422  41.8764154  23.8335558   6.6823148  41.4481766
  22.9967466   6.2545322  41.2665767  23.8059203   6.8755591  42.3852557
  30.6733014  -3.4054922  52.1523012  30.7221169  -2.5292799  51.7700782
  31.2155528  -3.9477529  51.5794655  41.1587859   7.1386201  51.4324149
  40.3683403   7.1210340  50.8928648  40.9221214   7.6774495  52.1873186
  41.2785734   3.9878668  48.7456878  41.3283739   3.8228675  49.6872400
  41.1699658   3.1205927  48.3554758  30.1621993   6.6667213  36.0348967
  30.3110113   7.3502678  35.3815639  30.9688436   6.6472303  36.5498422
  38.5689497  -0.0290404  50.0616184  39.4699359  -0.1683940  49.7700182
  38.6437471   0.1364050  51.0014362  32.9032302  -2.6523550  48.9069371
  32.0335611  -2.3589984  48.6351959  33.1391782  -2.0683105  49.6276634
  42.7803931   6.4075609  48.9898899  42.4888739   6.7705590  49.8262360
  42.1676062   5.6942617  48.8112231  43.9799613   3.9728489  41.5101469
  44.8146505   4.4118293  41.6739030  44.1158742   3.4967142  40.6909715
  41.0291119   1.5308224  47.4578957  41.5045241   1.7235870  46.6497809
  40.1056685   1.5867409  47.2122341  27.9174626   2.6932391  37.0410035
  27.6720668   1.7894721  37.2390246  28.0870540   2.6949541  36.0989513
  35.6071336  -6.4343933  46.4234791  36.1253280  -5.6982906  46.0981280
  35.2526469  -6.1279939  47.2581550  33.6617398   9.1615344  33.5060714
  33.0891366   9.7805531  33.0531186  34.2350192   9.7114705  34.0400636
  39.7292788  -1.5926016  45.6907263  40.6810211  -1.4927919  45.7119487
  39.5596239  -2.3847748  46.2005347  37.7507168  -4.5070433  45.8766664
  37.1557100  -4.2265420  45.1813152  37.4656864  -4.0176532  46.6483405
  36.8814658   9.4452494  34.6369296  37.8145331   9.3798055  34.8402172
  36.7937871  10.2808761  34.1783829  39.5102675   8.7618364  31.5973244
  39.4316306   8.4278228  32.4909002  40.3312342   9.2540132  31.5964716
  42.2080866   1.6280103  44.8049562  42.1757186   0.6896104  44.9909246
  42.8181490   1.7064140  44.0715387  34.0464197   0.4976156  30.8476766
  34.9923302   0.3682365  30.9165184  33.6678442  -0.2409182  31.3246195
  42.3575355  -1.5808853  44.8507846  41.8414403  -2.3650397  44.6637774
  43.2415303  -1.9090137  45.0154365  40.0186081  -7.8367838  40.8103658
  39.8210903  -8.1452749  41.6946990  40.6285787  -7.1106199  40.9401588
  48.0257416   2.6896110  43.9455599  48.7560804   2.4281398  44.5063302
  47.4164361   1.9524832  43.9857667  46.1072713   0.8303973  44.5430050
  45.3805877   0.6959938  43.9346542  45.6920000   1.1380801  45.3486768
  33.9302889   4.5493903  52.3077423  34.8505899   4.7272502  52.5017470
  33.8952473   3.6049948  52.1557123  26.9264962   2.4594937  44.9500205
  27.1450972   3.3912045  44.9688238  27.3390736   2.1002912  45.7355008
  31.7992827  -1.9671857  54.3402953  31.6989554  -1.0177500  54.2715045
  31.5814369  -2.2953618  53.4679024  23.0173314   3.3635408  43.2023820
  22.3236786   2.9489360  42.6893774  23.7646305   3.4055944  42.6057239
  39.1538535  -5.8458406  38.0678854  38.5737204  -5.1873601  37.6856906
  38.8874468  -6.6681061  37.6566271  37.6042102  -6.4453348  40.2700174
  38.1041880  -6.3336813  39.4614493  38.2477710  -6.7492295  40.9100983
  31.6624097   1.4625282  53.1568015  31.1791179   2.2625642  53.3631904
  31.7485036   1.4733227  52.2035459  24.9310057   3.2953661  41.0789834
  24.9080745   3.3941349  40.1271718  25.2410694   4.1418812  41.4007001
  27.5897435   5.3529816  45.1936449  28.5440688   5.3213759  45.1266380
  27.3909958   4.8920440  46.0086675  28.1796817   3.9230933  47.7607247
  28.9989706   4.4175011  47.7842084  28.4533625   3.0062901  47.7324814
  37.9363413  -3.6858315  37.1235202  37.0489268  -3.4008665  36.9055397
  38.3517402  -3.8464552  36.2762479  41.2877949  -3.6611794  40.8389541
  42.0638339  -3.1715342  41.1114158  40.5626084  -3.2353740  41.2961411
  43.7250508  -2.9484175  41.8963482  44.3194999  -3.1888439  41.1856790
  43.7977092  -3.6677044  42.5237018  25.9447664  10.8949436  42.2106647
  25.8102132  10.1349837  41.6444645  25.5279726  11.6190336  41.7435436
  37.0806627   6.0786360  31.2183222  37.7842477   6.2836362  31.8340878
  36.3569275   6.6463121  31.4832306  37.9104437   1.8296221  37.3385492
  37.8539638   2.2864772  36.4993125  38.4632779   1.0686905  37.1608335
  41.7209243  -2.3814047  38.1635612  41.4646177  -2.7817412  38.9943819
  41.0962111  -1.6670253  38.0385751  46.0321581   0.3582026  40.6706903
  45.4721139   0.4275215  41.4438465  45.4265084   0.1823011  39.9506399
  29.1016790  11.7918753  42.4225089  28.9849174  12.7364185  42.3203780
  28.2809236  11.4892315  42.8110889  38.9893324   6.5168889  33.2681682
  39.8238928   6.0850087  33.0859157  38.8277667   6.3450902  34.1958577
  38.6439216   3.0201002  34.6338021  38.5888020   2.8545273  33.6926466
  38.0185272   3.7277035  34.7900211  35.9585123   5.3249914  53.9591584
  36.8276283   5.4990566  53.5978219  35.4791875   6.1444331  53.8367314
  30.1271304  12.4447015  45.6381018  31.0298550  12.4770625  45.9547513
  29.9008674  11.5147466  45.6527354  31.8824906  11.1978001  42.2991096
  30.9320537  11.1979863  42.1855469  32.1857392  10.4510736  41.7827131
  47.6177599  17.0338540  43.3636859  48.2556009  16.9145287  42.6600199
  47.4998442  17.9819384  43.4224811  44.4267305  16.9865968  43.2998384
  44.0885817  16.8707033  42.4118918  45.2957074  16.5857133  43.2799390
  40.2854121  18.8401444  39.2895275  39.7218986  18.7491381  38.5211562
  40.1706516  18.0201349  39.7697767  44.9087088  18.1400820  49.2584589
  44.8975729  17.7453618  48.3865093  45.0707728  17.4066892  49.8518361
  37.8318553  20.3352636  42.1279495  38.6239845  19.9943461  41.7125794
  38.0715203  20.4447611  43.0481648  45.8653680  22.5072412  34.6009739
  45.2141660  23.0926492  34.2143753  46.6598043  23.0378607  34.6604777
  39.7909307  19.5961549  34.9996874  40.5640183  19.0490536  34.8609750
  40.1434706  20.4605799  35.2111335  41.6294350  20.9237931  48.2063773
  41.3384216  21.8283562  48.0910439  42.2651334  20.9654459  48.9207843
  42.5550556  18.3014780  44.7965133  43.1514129  18.0770802  44.0822096
  42.6125528  17.5599525  45.3990581  42.1275585  15.7554215  32.6315324
  42.3801106  15.2335737  31.8698787  41.1900144  15.5920361  32.7342007
  47.1718868  14.7589994  40.4390067  47.9581957  14.3409417  40.0880484
  47.4357572  15.6636086  40.6071715  47.3428945  20.1962844  35.1378724
  46.7074778  20.2697471  35.8499628  47.0126351  20.7856443  34.4597803
  52.5727295  14.6965227  41.3423045  53.3052467  14.1264444  41.5760875
  51.8166651  14.3086827  41.7829551  41.8471874  17.6582321  34.8339699
  41.7308132  16.9827225  35.5020783  41.9574133  17.1714695  34.0171852
  44.1903415  17.1192468  38.5386388  43.8261622  16.5923089  39.2499309
  45.0470530  16.7290937  38.3652873  50.0952715   8.4086801  45.8017654
  49.7636040   9.2782212  45.5778869  49.4998329   8.0923085  46.4811684
  43.8308902  12.1482368  33.5347736  43.9983304  13.0162604  33.9018207
  43.6406071  12.3109650  32.6109026  46.5884235  20.6099347  45.2013567
  46.2884958  21.5124386  45.0929374  46.2435294  20.3431530  46.0534720
  40.0396716  17.0613144  41.2350271  39.1147213  16.9289358  41.4427963
  40.2881129  17.8407363  41.7320214  49.9881378  13.1281887  42.8811004
  49.0798256  13.0597296  42.5869765  49.9368974  13.6053832  43.7092830
  43.8098122  14.6040026  34.5194403  43.6897748  15.0497076  35.3579884
  43.1150711  14.9525343  33.9607941  37.4005527  16.7046417  42.0694060
  37.5297908  16.9580896  42.9833472  36.7202979  17.2974125  41.7498715
  44.0622244  14.5471533  50.8245901  43.2855578  15.1065453  50.8148766
  44.7012807  15.0328316  51.3460771  51.8543025  11.3298326  44.6588878
  51.2117405  11.6230859  44.0128673  51.3497953  11.2151246  45.4642075
  49.5083189  15.0761499  35.3474737  50.4201045  15.3088886  35.1722435
  48.9992836  15.6598543  34.7849816  42.3168617  17.3556986  50.3863868
  43.0583301  17.8942030  50.1098692  41.6105602  17.9823275  50.5435420
  47.7923956  19.4986127  48.9836030  48.2007312  19.0568537  48.2390662
  47.0701218  18.9238754  49.2370223  44.1455026  14.4358733  46.3569587
  44.9916221  14.8598147  46.5004236  44.0853664  13.7792358  47.0508150
  51.9942003  20.9941755  40.0932682  51.3093041  21.3740656  39.5429716
  52.0785852  21.6037082  40.8264630  47.2954472  12.0963102  48.0150760
  47.0515403  12.8505162  47.4785036  47.5714402  12.4748449  48.8498007
  49.2492934  18.6401714  46.6928026  49.4609830  19.2833474  46.0162407
  49.2022683  17.8064031  46.2249956  46.8519163  11.2519535  43.5964598
  45.9903642  11.5500788  43.8881336  46.8781598  11.4689934  42.6645631
  40.5604814  19.3433207  42.9418167  41.1306171  19.7720475  42.3035652
  41.1512926  19.0615792  43.6402353  42.6049619  15.9184878  36.8127969
  43.3073662  16.3705921  37.2801895  42.2730247  15.2768697  37.4407862
  41.0529980  14.5096634  51.1879178  40.4228641  15.1912915  51.4214575
  40.9466068  14.3979716  50.2432317  36.3474953  14.1768430  42.1145103
  35.5574007  14.4325959  41.6385213  36.8386200  14.9916768  42.2197143
  50.3638762  21.5173670  44.8650383  51.1856206  21.1153857  44.5833065
  50.3601165  21.4141904  45.8166499  38.2989698  14.5413010  39.0728579
  37.5020861  14.6531704  39.5912075  38.0715290  14.8799662  38.2069470
  44.1295366  21.0657713  47.0211094  44.1939798  21.5278120  47.8569266
  43.4206290  20.4355078  47.1493404  34.6312656  14.4298921  44.5460093
  34.8820694  15.3145931  44.8117669  35.1672204  14.2503522  43.7735185
  58.4544755  17.8612418  41.2135355  57.7008464  17.2919816  41.0579359
  58.5892297  17.8275082  42.1605990  43.8443383  22.7325820  36.8890074
  43.7089058  23.5777356  37.3174922  44.3853196  22.9345098  36.1256008
  40.3310723   8.8117400  53.5504429  39.9377669   8.2583599  54.2252074
  41.1476863   9.1227979  53.9410947  37.2972781  20.2501258  37.4617999
  37.8097301  21.0444509  37.6123564  37.9495494  19.5527549  37.3951601
  43.2478684  10.2275279  51.1424686  43.9888397  10.8282432  51.0629148
  43.4796607   9.4852917  50.5842729  38.3920022  15.4131646  49.4202916
  38.2773537  14.5116904  49.7210015  37.5364540  15.6595343  49.0687732
  47.1935847   6.2556382  45.4188968  46.8500116   7.1458024  45.3428078
  47.5614810   6.0658040  44.5558553  35.2621698  18.5789913  38.2377570
  36.0996920  18.9886921  38.0211278  35.4399965  17.6389355  38.2077764
  47.1586130  16.2464993  33.9261403  46.6432753  17.0169598  34.1649790
  46.8863438  15.5730129  34.5494464  44.7433241  11.0914694  38.9846641
  43.8874837  10.7021544  38.8052280  45.1560192  11.1706655  38.1246427
  46.2732387   8.6261037  43.3838201  45.7697183   8.5891172  42.5706006
  46.5662994   9.5353780  43.4434858  42.5175273   8.7099767  42.3904383
  43.3828270   8.5142576  42.0310272  42.5852782   8.4810119  43.3173739
  52.1320404  18.9997348  35.8614576  51.3549847  18.6608507  35.4169738
  52.8111885  19.0049971  35.1869541  46.9472433  14.1192085  35.7521184
  46.6422568  14.4338235  36.6031327  47.9002875  14.1973505  35.7948517
  50.3711711  18.4731329  42.5181184  49.7135385  19.1630591  42.6061313
  51.1752110  18.8627761  42.8615171  40.1237592  10.9401975  39.7620749
  40.6981344  10.7177156  39.0293942  40.7108575  11.0090669  40.5149351
  49.1817170  16.8275702  40.5685126  49.6949051  17.4605694  41.0706836
  49.8318393  16.2276897  40.2028486  40.4507179  12.9706436  33.7816635
  39.6144492  13.3081123  34.1025909  40.3111949  12.8355416  32.8443772
  42.4260260   7.8143224  38.4895819  41.7724672   7.4992241  37.8652434
  42.3840734   7.1918964  39.2155642  43.5371465  18.0962519  30.4049111
  42.6298527  17.8651772  30.6040260  44.0342497  17.3000138  30.5923093
  46.4439544  26.8060026  33.3245797  45.7701243  27.1091723  33.9330755
  46.8305366  27.6089106  32.9751254  45.6598000  14.3025157  42.8143466
  44.7420562  14.5240104  42.6565155  46.0758144  14.3771468  41.9555174
  46.4433048  15.7016573  37.9446147  47.1904867  16.2137970  37.6353269
  46.7124638  15.3800626  38.8050540  44.7159698  18.1975114  34.9273101
  43.8070918  17.9134147  35.0245571  44.7454782  18.6174192  34.0676408
  49.9478966  21.8081703  38.6964269  49.4941293  20.9672613  38.7529459
  49.3172932  22.4443102  39.0339049  48.8911885  12.7373689  39.9264936
  48.1534642  12.2251076  40.2575179  49.1438659  12.2974071  39.1148213
  48.9923513   5.5149941  40.5206705  49.2982389   4.6547305  40.2332620
  49.7176117   6.1067562  40.3205699  35.2847869  15.9180628  38.9088303
  35.0872269  15.3249989  38.1839370  34.7294533  15.6132838  39.6264242
  43.2644592  15.8103734  41.0282896  43.3193202  14.8577571  40.9525373
  42.4535794  15.9663174  41.5124195  44.4135786  19.7383857  32.2661180
  43.9755216  19.0219716  31.8066817  45.1546227  19.9659972  31.7046271
  41.2036952  14.4280794  38.7873275  40.3904818  14.7274965  39.1938467
  41.6995946  14.0336483  39.5047758  46.8011164  14.8922619  47.6188169
  47.1560552  15.1194092  48.4782635  47.4483295  15.2240995  46.9965424
  52.5308901  18.0141055  38.3237498  52.3926800  18.2042651  37.3958687
  52.1745120  18.7760437  38.7805549  40.6951027  11.9999150  44.4034510
  41.3350406  11.8587909  43.7057474  39.8628558  11.7133663  44.0273112
  52.5578281  20.0817582  43.3348770  52.9914787  19.9892871  44.1831824
  53.2709861  20.0575082  42.6968786  41.4711331  21.3001580  40.5169503
  42.2651929  20.8051900  40.3152078  40.7603023  20.7719443  40.1537208
  37.7794094  15.4444662  36.5929255  36.8491683  15.3829117  36.8099217
  37.8751566  14.9220615  35.7965897  37.6979643  11.9699475  39.1807497
  37.9586461  12.8844808  39.0716657  38.5196816  11.5023917  39.3304110
  39.1704569  13.3837232  46.3506322  39.8427622  13.1754594  45.7018970
  38.3434355  13.1859318  45.9111554  53.4193830  20.1241282  45.8681655
  53.6129720  21.0287093  46.1140930  53.3194448  19.6648701  46.7020240
  45.0730141  10.0099173  48.3671982  44.4258056  10.7089122  48.2736459
  45.8431156  10.4435317  48.7348231  48.4808939  20.2748025  51.4422536
  48.3294445  20.0458577  50.5252619  48.4713618  21.2318626  51.4553881
  45.2494275  17.8479938  46.4268802  46.1786335  17.9991097  46.2537769
  44.8285305  17.9363958  45.5717449  44.6430759  26.9739699  35.5392876
  44.8182515  26.5027742  36.3538499  43.9563547  27.6005465  35.7674137
  39.5732066  16.6579835  47.1108759  39.4351864  15.9260074  47.7120298
  40.4836990  16.5688735  46.8292946  48.5347014  18.5968239  31.8593237
  47.9176184  17.8715067  31.7626290  48.0663502  19.3577599  31.5160311
  42.2014367  16.3699794  46.5992438  42.9113985  15.7292986  46.5579057
  42.1583675  16.6212689  47.5218619  50.1901145  23.3067147  49.5199018
  50.1313692  22.6226368  48.8529601  50.5920664  24.0486137  49.0679644
  40.9143301  13.3565012  48.4188078  40.3780658  12.9055750  49.0709674
  40.3260009  13.4910921  47.6758542  40.3245560  12.8153663  30.9814541
  39.4475026  12.6942464  30.6176788  40.8003313  12.0239742  30.7293430
  50.1918553  21.2706731  47.7512997  49.3045331  20.9332653  47.8739396
  50.7617104  20.5389763  47.9881763  31.8447700  17.6030823  41.0756049
  32.5318740  17.2892553  40.4877064  31.6895828  18.5072188  40.8023300
  36.6482422  12.4921020  45.5041072  36.5640611  11.8846689  44.7691482
  35.8265128  12.9830038  45.5050569  46.8206136  10.9774583  40.8711267
  47.3174835  10.2244546  40.5512338  46.0493117  11.0138900  40.3054477
  54.6735893  16.6814949  42.5129559  54.6625769  17.5639664  42.1423492
  53.8053273  16.3286500  42.3184096  43.4041105  13.1191966  40.5982952
  43.0338892  12.5663007  41.2863858  43.9000197  12.5150100  40.0457952
  51.2908468  15.5763590  38.9799725  51.7568920  16.4091581  38.9060028
  51.7415968  15.1108571  39.6844983  49.3584699  21.9207411  35.9785877
  49.6344543  21.8064006  36.8879751  48.4889198  21.5224896  35.9398050
  49.2625131   7.9444177  43.0190626  48.3488210   8.1748404  43.1872833
  49.6918232   8.0282621  43.8704659  49.0331589  16.1334069  45.5190520
  48.3803039  16.3809976  44.8642973  49.4111969  15.3198207  45.1852998
  46.3280928  25.0961947  36.8833739  46.8568695  24.5854402  36.2703901
  46.5909148  24.7804477  37.7479272  45.0819162  16.8753880  52.0056557
  44.4059799  16.7748009  52.6758933  45.9046796  16.7193094  52.4692555
  36.8298021  23.1125816  44.6269073  37.4151458  22.3669504  44.7596977
  36.6322860  23.4229773  45.5105737  31.4215676  15.6831417  43.3473516
  31.4599775  15.1495007  44.1410634  30.9155969  15.1566622  42.7284493
  38.8006438  10.5295957  46.8436058  38.8647765  11.3910788  46.4313456
  38.7373558   9.9169959  46.1108417  38.2758711  12.6019090  50.4909092
  38.9030750  12.2196167  51.1046617  37.4186630  12.3833292  50.8564785
  48.6752819  23.0082065  52.0962828  49.2192723  23.6212023  51.6017783
  48.0939664  23.5661643  52.6129841  35.0524254  14.4095519  36.4227447
  35.3477695  13.5006197  36.3694501  34.1512289  14.3883258  36.1008450
  38.5818501  12.4851515  42.4054996  37.8605086  13.0987483  42.2662469
  39.3711756  13.0209280  42.3271642  41.3844814   9.8205942  48.6795648
  41.9079216  10.0668238  49.4421957  41.1657147  10.6525977  48.2598785
  36.7812095  12.0909616  36.5466772  36.4524801  11.2106995  36.3641878
  37.1351466  12.0357285  37.4343162  39.8953918  12.3782586  36.9142250
  40.2349991  12.9068507  36.1920858  40.3426039  12.7162992  37.6900817
  42.5897359  10.7619637  46.3645318  42.2494179   9.9627450  46.7665998
  41.8836365  11.0621348  45.7922151  43.2413831   7.8468949  44.8172641
  44.0639900   7.3729427  44.6951531  43.4851894   8.6259433  45.3171327
  41.8822065  10.8757208  35.1135543  42.6030428  11.2538461  34.6099260
  41.2587370  11.5946085  35.2170521  46.0253188  11.5802357  36.0493875
  46.2416803  12.4626995  35.7482703  45.5447255  11.1888570  35.3199517
  40.7652410  14.5388070  42.6264620  40.6196990  14.8528373  43.5188901
  40.2877613  15.1572970  42.0735518  42.6248793  11.5290618  42.6745509
  42.6110361  10.6331711  42.3377807  43.3421221  11.5361282  43.3083795
  44.4774923  11.9627958  44.7198637  44.2192701  12.8845029  44.7182967
  43.9459964  11.5658393  45.4099101  49.4221112  25.0678745  37.4988722
  49.5957990  24.5025168  36.7462575  49.9150003  25.8679640  37.3168212
  35.2398072  17.0793414  45.5652281  34.6951540  17.8553222  45.6972555
  36.1177422  17.4264219  45.4071402  42.0285688  10.4104998  37.9433079
  42.1501600   9.4821644  38.1423967  41.7387731  10.4243684  37.0311395
  44.8976879   8.0959909  41.0799799  44.9198576   8.1599242  40.1251779
  45.3144938   7.2564417  41.2740305  55.2760503  17.8315168  39.1179022
  55.7191649  17.0822493  38.7198145  54.3987013  17.8225305  38.7352754
  50.4096284  24.3845510  34.5985620  51.1047189  25.0052202  34.8172935
  50.7519435  23.5340861  34.8737998  36.0264094  16.2063311  48.4582438
  35.2845830  16.3545946  49.0447068  35.7056838  16.4671576  47.5949187
  52.3087708  21.8345215  36.1272951  52.8339032  22.1732488  35.4022271
  52.2210060  20.8992230  35.9436086  36.4720707  24.0928739  40.4892832
  37.2978727  23.7932511  40.1091476  36.1214759  23.3236362  40.9382621
  34.6729312  22.0115066  41.4481766  33.8361221  21.5837240  41.2665767
  34.6452958  22.2047509  42.3852557  41.5126768  11.9236996  52.1523012
  41.5614923  12.7999118  51.7700782  42.0549282  11.3814389  51.5794655
  51.9981614  22.4678119  51.4324149  51.2077157  22.4502258  50.8928648
  51.7614968  23.0066413  52.1873186  52.1179489  19.3170585  48.7456878
  52.1677494  19.1520593  49.6872400  52.0093412  18.4497844  48.3554758
  41.0015747  21.9959131  36.0348967  41.1503868  22.6794595  35.3815639
  41.8082191  21.9764221  36.5498422  49.4083251  15.3001513  50.0616184
  50.3093114  15.1607978  49.7700182  49.4831226  15.4655968  51.0014362
  43.7426056  12.6768368  48.9069371  42.8729366  12.9701934  48.6351959
  43.9785537  13.2608813  49.6276634  53.6197686  21.7367527  48.9898899
  53.3282494  22.0997507  49.8262360  53.0069817  21.0234535  48.8112231
  54.8193368  19.3020406  41.5101469  55.6540259  19.7410211  41.6739030
  54.9552497  18.8259060  40.6909715  51.8684874  16.8600141  47.4578957
  52.3438995  17.0527788  46.6497809  50.9450439  16.9159327  47.2122341
  38.7568380  18.0224309  37.0410035  38.5114422  17.1186639  37.2390246
  38.9264295  18.0241459  36.0989513  46.4465090   8.8947985  46.4234791
  46.9647034   9.6309012  46.0981280  46.0920223   9.2011978  47.2581550
  38.0264028  13.7552666  34.5396197  37.3333273  13.8297021  33.8836233
  37.7815780  12.9913010  35.0617714  46.6977684   5.3148267  41.9435688
  46.9779438   4.6471456  42.5696114  47.4828291   5.5077363  41.4310351
  44.5011153  24.4907261  33.5060714  43.9285120  25.1097448  33.0531186
  45.0743947  25.0406623  34.0400636  50.5686543  13.7365901  45.6907263
  51.5203966  13.8363999  45.7119487  50.3989993  12.9444170  46.2005347
  48.5900922  10.8221485  45.8766664  47.9950854  11.1026497  45.1813152
  48.3050619  11.3115386  46.6483405  47.7208413  24.7744411  34.6369296
  48.6539086  24.7089973  34.8402172  47.6331626  25.6100678  34.1783829
  50.3496429  24.0910282  31.5973244  50.2710061  23.7570145  32.4909002
  51.1706096  24.5832050  31.5964716  53.0474621  16.9572021  44.8049562
  53.0150941  16.0188022  44.9909246  53.6575244  17.0356058  44.0715387
  44.8857951  15.8268074  30.8476766  45.8317056  15.6974282  30.9165184
  44.5072196  15.0882736  31.3246195  53.1969109  13.7483065  44.8507846
  52.6808158  12.9641521  44.6637774  54.0809058  13.4201781  45.0154365
  50.8579836   7.4924080  40.8103658  50.6604657   7.1839168  41.6946990
  51.4679542   8.2185719  40.9401588  58.8651170  18.0188028  43.9455599
  59.5954559  17.7573316  44.5063302  58.2558116  17.2816750  43.9857667
  56.9466468  16.1595891  44.5430050  56.2199631  16.0251855  43.9346542
  56.5313754  16.4672719  45.3486768  43.0700869  13.7518050  30.7831652
  42.1632324  13.4551163  30.8594365  43.3476850  13.4547869  29.9165938
  33.9878809  15.0724414  41.2330698  33.6681593  14.2189722  40.9405072
  33.4412237  15.2872992  41.9888665  37.7658717  17.7886855  44.9500205
  37.9844726  18.7203963  44.9688238  38.1784490  17.4294829  45.7355008
  44.6862934   8.2954940  36.9375893  43.8763663   7.9502025  37.3131139
  45.3747351   7.9862484  37.5263504  46.6153483   7.3732987  38.5600190
  47.1684521   7.7928440  39.2190213  46.8523569   6.4468735  38.6023146
  42.6386582  13.3620061  54.3402953  42.5383309  14.3114418  54.2715045
  42.4208124  13.0338300  53.4679024  41.8399653  10.6104986  30.9243631
  42.7018817  10.9359884  31.1839448  42.0249997   9.8236482  30.4116697
  33.8567069  18.6927325  43.2023820  33.1630540  18.2781278  42.6893774
  34.6040060  18.7347862  42.6057239  49.9932290   9.4833512  38.0678854
  49.4130959  10.1418316  37.6856906  49.7268222   8.6610857  37.6566271
  48.4435856   8.8838570  40.2700174  48.9435634   8.9955104  39.4614493
  49.0871464   8.5799623  40.9100983  42.5017852  16.7917199  53.1568015
  42.0184934  17.5917560  53.3631904  42.5878791  16.8025144  52.2035459
  35.7703812  18.6245579  41.0789834  35.7474500  18.7233266  40.1271718
  36.0804448  19.4710730  41.4007001  38.4291189  20.6821734  45.1936449
  39.3834443  20.6505677  45.1266380  38.2303713  20.2212358  46.0086675
  39.0190572  19.2522850  47.7607247  39.8383461  19.7466929  47.7842084
  39.2927379  18.3354818  47.7324814  48.7757168  11.6433603  37.1235202
  47.8883023  11.9283253  36.9055397  49.1911157  11.4827366  36.2762479
  52.1271704  11.6680124  40.8389541  52.9032094  12.1576576  41.1114158
  51.4019838  12.0938178  41.2961411  54.5644262  12.3807743  41.8963482
  55.1588753  12.1403479  41.1856790  54.6370846  11.6614873  42.5237018
  47.9200381  21.4078277  31.2183222  48.6236231  21.6128280  31.8340878
  47.1963030  21.9755039  31.4832306  48.7498191  17.1588138  37.3385492
  48.6933393  17.6156690  36.4993125  49.3026534  16.3978823  37.1608335
  52.5602997  12.9477870  38.1635612  52.3039932  12.5474506  38.9943819
  51.9355865  13.6621664  38.0385751  56.8715335  15.6873944  40.6706903
  56.3114893  15.7567133  41.4438465  56.2658839  15.5114928  39.9506399
  49.8287079  21.8460806  33.2681682  50.6632683  21.4142005  33.0859157
  49.6671422  21.6742820  34.1958577  49.4832971  18.3492920  34.6338021
  49.4281775  18.1837191  33.6926466  48.8579026  19.0568953  34.7900211
  34.2725486  13.5860984  48.4599444  34.9184349  13.0759938  48.9486669
  34.0642637  14.3229666  49.0342869  46.7978878  20.6541832  53.9591584
  47.6670038  20.8282484  53.5978219  46.3185629  21.4736248  53.8367314
  42.7929096   7.8501029  34.2123340  42.7807766   8.7942869  34.3691611
  43.6852518   7.6671174  33.9182801  46.6081216   4.4443805  38.4669277
  45.8413611   3.8902292  38.6125959  47.0191921   4.5165674  39.3283428
  38.6122977  10.7328601  52.5574458  39.4754438  10.3765406  52.7677782
  38.0388387  10.3942496  53.2449862  58.4571354  32.3630458  43.3636859
  59.0949764  32.2437205  42.6600199  58.3392197  33.3111301  43.4224811
  56.7047434  37.8364330  34.6009739  56.0535414  38.4218410  34.2143753
  57.4991797  38.3670525  34.6604777  50.6303062  34.9253467  34.9996874
  51.4033938  34.3782454  34.8609750  50.9828460  35.7897716  35.2111335
  52.9669339  31.0846133  32.6315324  53.2194860  30.5627654  31.8698787
  52.0293898  30.9212278  32.7342007  58.0112622  30.0881911  40.4390067
  58.7975711  29.6701335  40.0880484  58.2751326  30.9928004  40.6071715
  58.1822700  35.5254762  35.1378724  57.5468533  35.5989388  35.8499628
  57.8520106  36.1148361  34.4597803  63.4121049  30.0257145  41.3423045
  64.1446221  29.4556361  41.5760875  62.6560405  29.6378745  41.7829551
  52.6865628  32.9874239  34.8339699  52.5701886  32.3119142  35.5020783
  52.7967888  32.5006613  34.0171852  55.0297169  32.4484386  38.5386388
  54.6655376  31.9215007  39.2499309  55.8864285  32.0582855  38.3652873
  60.9346470  23.7378719  45.8017654  60.6029794  24.6074130  45.5778869
  60.3392083  23.4215003  46.4811684  54.6702656  27.4774286  33.5347736
  54.8377058  28.3454522  33.9018207  54.4799825  27.6401567  32.6109026
  60.8275133  28.4573805  42.8811004  59.9192010  28.3889213  42.5869765
  60.7762729  28.9345750  43.7092830  54.6491877  29.9331943  34.5194403
  54.5291502  30.3788994  35.3579884  53.9544465  30.2817261  33.9607941
  52.4098769  42.7035585  38.1684534  52.3322799  43.6543410  38.2473015
  51.8060413  42.3581458  38.8259461  62.6936779  26.6590243  44.6588878
  62.0511160  26.9522776  44.0128673  62.1891708  26.5443164  45.4642075
  60.3476943  30.4053416  35.3474737  61.2594799  30.6380803  35.1722435
  59.8386590  30.9890461  34.7849816  58.9546525  35.3879235  42.7388319
  58.3255388  35.5524949  42.0364387  58.5672187  35.8020844  43.5099283
  62.8335757  36.3233673  40.0932682  62.1486795  36.7032574  39.5429716
  62.9179607  36.9328999  40.8264630  58.1348226  27.4255019  48.0150760
  57.8909158  28.1797080  47.4785036  58.4108157  27.8040367  48.8498007
  60.0886689  33.9693632  46.6928026  60.3003584  34.6125392  46.0162407
  60.0416437  33.1355948  46.2249956  57.6912918  26.5811452  43.5964598
  56.8297397  26.8792706  43.8881336  57.7175352  26.7981851  42.6645631
  53.4443373  31.2476795  36.8127969  54.1467417  31.6997839  37.2801895
  53.1124002  30.6060614  37.4407862  61.2032517  36.8465587  44.8650383
  62.0249961  36.4445774  44.5833065  61.1994920  36.7433821  45.8166499
  69.2938510  33.1904336  41.2135355  68.5402218  32.6211734  41.0579359
  69.4286051  33.1567000  42.1605990  54.6837138  38.0617738  36.8890074
  54.5482813  38.9069274  37.3174922  55.2246950  38.2637016  36.1256008
  51.1704478  24.1409318  53.5504429  50.7771423  23.5875516  54.2252074
  51.9870618  24.4519896  53.9410947  54.0872439  25.5567197  51.1424686
  54.8282152  26.1574350  51.0629148  54.3190361  24.8144835  50.5842729
  58.0329601  21.5848300  45.4188968  57.6893871  22.4749942  45.3428078
  58.4008564  21.3949957  44.5558553  57.9979884  31.5756911  33.9261403
  57.4826508  32.3461516  34.1649790  57.7257193  30.9022047  34.5494464
  55.5826995  26.4206612  38.9846641  54.7268592  26.0313462  38.8052280
  55.9953947  26.4998573  38.1246427  57.1126142  23.9552955  43.3838201
  56.6090937  23.9183090  42.5706006  57.4056749  24.8645698  43.4434858
  53.3569028  24.0391685  42.3904383  54.2222025  23.8434493  42.0310272
  53.4246537  23.8102036  43.3173739  62.9714158  34.3289266  35.8614576
  62.1943601  33.9900425  35.4169738  63.6505639  34.3341889  35.1869541
  57.7866187  29.4484003  35.7521184  57.4816323  29.7630152  36.6031327
  58.7396629  29.5265423  35.7948517  56.2312619  35.6074226  37.4014138
  55.7033981  34.8726986  37.0887375  55.7300122  36.3848903  37.1554106
  61.2105465  33.8023247  42.5181184  60.5529140  34.4922508  42.6061313
  62.0145864  34.1919679  42.8615171  60.0210924  32.1567620  40.5685126
  60.5342806  32.7897611  41.0706836  60.6712148  31.5568815  40.2028486
  51.2900934  28.2998354  33.7816635  50.4538246  28.6373040  34.1025909
  51.1505704  28.1647333  32.8443772  53.2654015  23.1435142  38.4895819
  52.6118427  22.8284159  37.8652434  53.2234489  22.5210882  39.2155642
  54.3765219  33.4254437  30.4049111  53.4692281  33.1943690  30.6040260
  54.8736251  32.6292056  30.5923093  57.2833298  42.1351944  33.3245797
  56.6094997  42.4383641  33.9330755  57.6699120  42.9381024  32.9751254
  57.2826803  31.0308491  37.9446147  58.0298622  31.5429888  37.6353269
  57.5518392  30.7092544  38.8050540  55.5553453  33.5267032  34.9273101
  54.6464672  33.2426064  35.0245571  55.5848537  33.9466110  34.0676408
  60.7872720  37.1373621  38.6964269  60.3335047  36.2964531  38.7529459
  60.1566687  37.7735019  39.0339049  59.7305640  28.0665607  39.9264936
  58.9928397  27.5542993  40.2575179  59.9832413  27.6265989  39.1148213
  59.2305659  38.9750118  39.6314087  59.5228634  39.5355175  38.9126452
  59.7404280  39.2678679  40.3867246  59.8317267  20.8441859  40.5206705
  60.1376144  19.9839222  40.2332620  60.5569872  21.4359479  40.3205699
  54.1038347  31.1395652  41.0282896  54.1586957  30.1869489  40.9525373
  53.2929549  31.2955091  41.5124195  55.2529541  35.0675775  32.2661180
  54.8148971  34.3511634  31.8066817  55.9939981  35.2951890  31.7046271
  52.0430707  29.7572712  38.7873275  51.2298572  30.0566882  39.1938467
  52.5389701  29.3628401  39.5047758  63.3702655  33.3432972  38.3237498
  63.2320554  33.5334568  37.3958687  63.0138874  34.1052355  38.7805549
  63.3972035  35.4109499  43.3348770  63.8308542  35.3184788  44.1831824
  64.1103616  35.3867000  42.6968786  57.1299930  39.0111593  44.8681870
  57.1836952  39.5802530  45.6359586  56.2614711  39.1813478  44.5035907
  64.2587585  35.4533200  45.8681655  64.4523475  36.3579010  46.1140930
  64.1588203  34.9940619  46.7020240  55.9123895  25.3391090  48.3671982
  55.2651810  26.0381040  48.2736459  56.6824911  25.7727234  48.7348231
  59.3202693  35.6039943  51.4422536  59.1688200  35.3750494  50.5252619
  59.3107373  36.5610544  51.4553881  55.4824513  42.3031616  35.5392876
  55.6576269  41.8319659  36.3538499  54.7957301  42.9297382  35.7674137
  56.4381577  36.5804122  41.5856178  56.1031409  36.5404892  42.4813827
  55.9385522  35.9148838  41.1126588  59.3740768  33.9260157  31.8593237
  58.7569939  33.2006985  31.7626290  58.9057257  34.6869517  31.5160311
  61.0294900  38.6359065  49.5199018  60.9707446  37.9518285  48.8529601
  61.4314418  39.3778055  49.0679644  51.1639314  28.1445581  30.9814541
  50.2868780  28.0234382  30.6176788  51.6397067  27.3531659  30.7293430
  61.0312307  36.5998649  47.7512997  60.1439086  36.2624571  47.8739396
  61.6010858  35.8681680  47.9881763  54.3503240  40.4971871  38.2277062
  53.5670762  41.0393552  38.3215287  55.0495985  41.0145851  38.6271303
  57.6599890  26.3066501  40.8711267  58.1568590  25.5536463  40.5512338
  56.8886872  26.3430818  40.3054477  65.5129648  32.0106866  42.5129559
  65.5019524  32.8931582  42.1423492  64.6447027  31.6578417  42.3184096
  58.7429671  35.0638188  38.4449691  57.8085950  35.1839651  38.2754395
  58.9206339  34.1610655  38.1809701  54.2434859  28.4483884  40.5982952
  53.8732647  27.8954924  41.2863858  54.7393952  27.8442017  40.0457952
  62.1302222  30.9055507  38.9799725  62.5962675  31.7383499  38.9060028
  62.5809723  30.4400489  39.6844983  60.1978453  37.2499329  35.9785877
  60.4738297  37.1355923  36.8879751  59.3282952  36.8516814  35.9398050
  60.1018885  23.2736094  43.0190626  59.1881965  23.5040321  43.1872833
  60.5311987  23.3574538  43.8704659  59.8725344  31.4625986  45.5190520
  59.2196794  31.7101894  44.8642973  60.2505723  30.6490125  45.1852998
  56.8332517  41.4985680  39.6218691  57.0154912  40.6807336  40.0846443
  57.6565503  41.7153372  39.1843581  57.1674683  40.4253865  36.8833739
  57.6962449  39.9146319  36.2703901  57.4302903  40.1096395  37.7479272
  59.5146574  38.3373982  52.0962828  60.0586478  38.9503941  51.6017783
  58.9333419  38.8953561  52.6129841  57.8004087  41.4594700  43.2277856
  57.6755226  40.6584440  42.7188801  58.4583178  41.9540894  42.7391825
  59.8638995  39.2603721  44.8557406  58.9169331  39.1409072  44.7835732
  60.2121768  38.3726219  44.9383667  52.2238569  25.1497859  48.6795648
  52.7472970  25.3960156  49.4421957  52.0050902  25.9817894  48.2598785
  47.6205850  27.4201534  36.5466772  47.2918556  26.5398913  36.3641878
  47.9745220  27.3649203  37.4343162  56.8685428  39.0556437  41.0561758
  56.7210391  38.1273144  41.2369328  57.6938922  39.0776527  40.5718833
  50.7347673  27.7074504  36.9142250  51.0743745  28.2360425  36.1920858
  51.1819793  28.0454910  37.6900817  60.4719550  39.8784995  42.1426631
  61.3966098  39.6727857  42.0051082  60.3034854  39.6301397  43.0515972
  54.0807585  23.1760867  44.8172641  54.9033655  22.7021345  44.6951531
  54.3245649  23.9551351  45.3171327  52.7215820  26.2049125  35.1135543
  53.4424182  26.5830378  34.6099260  52.0981124  26.9238002  35.2170521
  56.8646943  26.9094274  36.0493875  57.0810557  27.7918912  35.7482703
  56.3841010  26.5180488  35.3199517  60.2614867  40.3970663  37.4988722
  60.4351744  39.8317085  36.7462575  60.7543758  41.1971558  37.3168212
  52.8679443  25.7396916  37.9433079  52.9895354  24.8113562  38.1423967
  52.5781485  25.7535602  37.0311395  55.7370633  23.4251826  41.0799799
  55.7592330  23.4891159  40.1251779  56.1538692  22.5856335  41.2740305
  66.1154258  33.1607086  39.1179022  66.5585404  32.4114411  38.7198145
  65.2380768  33.1517222  38.7352754  61.2490039  39.7137427  34.5985620
  61.9440944  40.3344120  34.8172935  61.5913189  38.8632779  34.8737998
  63.1481462  37.1637133  36.1272951  63.6732786  37.5024406  35.4022271
  63.0603815  36.2284148  35.9436086  54.8322123  43.2309116  40.4868204
  54.3927113  42.7385495  41.1801061  55.5830240  42.6882084  40.2460280
  62.8375368  37.7970036  51.4324149  62.0470912  37.7794175  50.8928648
  62.6008723  38.3358330  52.1873186  62.9573243  34.6462503  48.7456878
  63.0071248  34.4812510  49.6872400  62.8487167  33.7789762  48.3554758
  60.2477006  30.6293431  50.0616184  61.1486868  30.4899896  49.7700182
  60.3224980  30.7947886  51.0014362  64.4591440  37.0659444  48.9898899
  64.1676248  37.4289425  49.8262360  63.8463571  36.3526453  48.8112231
  65.6587122  34.6312324  41.5101469  66.4934014  35.0702128  41.6739030
  65.7946251  34.1550977  40.6909715  62.7078628  32.1892059  47.4578957
  63.1832750  32.3819705  46.6497809  61.7844194  32.2451245  47.2122341
  57.2858845  24.2239903  46.4234791  57.8040789  24.9600929  46.0981280
  56.9313978  24.5303896  47.2581550  48.8657782  29.0844584  34.5396197
  48.1727027  29.1588939  33.8836233  48.6209534  28.3204927  35.0617714
  57.5371439  20.6440185  41.9435688  57.8173193  19.9763374  42.5696114
  58.3222046  20.8369281  41.4310351  55.3404907  39.8199179  33.5060714
  54.7678875  40.4389366  33.0531186  55.9137701  40.3698541  34.0400636
  61.4080297  29.0657819  45.6907263  62.3597720  29.1655917  45.7119487
  61.2383748  28.2736088  46.2005347  59.4294677  26.1513402  45.8766664
  58.8344609  26.4318415  45.1813152  59.1444373  26.6407303  46.6483405
  58.5602167  40.1036329  34.6369296  59.4932840  40.0381891  34.8402172
  58.4725380  40.9392596  34.1783829  61.1890184  39.4202199  31.5973244
  61.1103815  39.0862063  32.4909002  62.0099851  39.9123967  31.5964716
  63.8868375  32.2863939  44.8049562  63.8544695  31.3479940  44.9909246
  64.4968999  32.3647975  44.0715387  55.7251706  31.1559992  30.8476766
  56.6710811  31.0266200  30.9165184  55.3465951  30.4174654  31.3246195
  64.0362864  29.0774982  44.8507846  63.5201912  28.2933439  44.6637774
  64.9202812  28.7493699  45.0154365  61.6973590  22.8215998  40.8103658
  61.4998412  22.5131086  41.6946990  62.3073296  23.5477637  40.9401588
  69.7044925  33.3479946  43.9455599  70.4348313  33.0865234  44.5063302
  69.0951870  32.6108668  43.9857667  67.7860222  31.4887808  44.5430050
  67.0593386  31.3543773  43.9346542  67.3707509  31.7964637  45.3486768
  53.9094623  29.0809968  30.7831652  53.0026078  28.7843081  30.8594365
  54.1870604  28.7839786  29.9165938  55.5256689  23.6246858  36.9375893
  54.7157417  23.2793943  37.3131139  56.2141106  23.3154402  37.5263504
  57.4547237  22.7024905  38.5600190  58.0078276  23.1220358  39.2190213
  57.6917323  21.7760653  38.6023146  52.6793408  25.9396903  30.9243631
  53.5412572  26.2651802  31.1839448  52.8643752  25.1528399  30.4116697
  60.8326044  24.8125430  38.0678854  60.2524713  25.4710234  37.6856906
  60.5661977  23.9902774  37.6566271  59.2829611  24.2130488  40.2700174
  59.7829389  24.3247022  39.4614493  59.9265218  23.9091540  40.9100983
  59.6150922  26.9725520  37.1235202  58.7276777  27.2575171  36.9055397
  60.0304911  26.8119284  36.2762479  62.9665458  26.9972041  40.8389541
  63.7425848  27.4868494  41.1114158  62.2413593  27.4230095  41.2961411
  65.4038017  27.7099660  41.8963482  65.9982508  27.4695396  41.1856790
  65.4764601  26.9906791  42.5237018  58.7594136  36.7370195  31.2183222
  59.4629986  36.9420197  31.8340878  58.0356784  37.3046957  31.4832306
  59.5891946  32.4880056  37.3385492  59.5327147  32.9448608  36.4993125
  60.1420288  31.7270741  37.1608335  63.3996752  28.2769788  38.1635612
  63.1433686  27.8766424  38.9943819  62.7749620  28.9913582  38.0385751
  67.7109090  31.0165861  40.6706903  67.1508648  31.0859051  41.4438465
  67.1052593  30.8406846  39.9506399  60.6680833  37.1752724  33.2681682
  61.5026437  36.7433923  33.0859157  60.5065176  37.0034738  34.1958577
  60.3226725  33.6784837  34.6338021  60.2675529  33.5129109  33.6926466
  59.6972781  34.3860870  34.7900211  53.6322851  23.1792946  34.2123340
  53.6201521  24.1234786  34.3691611  54.5246273  22.9963092  33.9182801
  57.4474970  19.7735723  38.4669277  56.6807366  19.2194210  38.6125959
  57.8585675  19.8457592  39.3283428  69.2965108  47.6922375  43.3636859
  69.9343518  47.5729123  42.6600199  69.1785951  48.6403219  43.4224811
  66.1054814  47.6449803  43.2998384  65.7673326  47.5290868  42.4118918
  66.9744583  47.2440968  43.2799390  61.9641630  49.4985280  39.2895275
  61.4006495  49.4075217  38.5211562  61.8494025  48.6785184  39.7697767
  66.5874597  48.7984655  49.2584589  66.5763238  48.4037453  48.3865093
  66.7495237  48.0650728  49.8518361  67.5441189  53.1656247  34.6009739
  66.8929169  53.7510328  34.2143753  68.3385552  53.6962442  34.6604777
  61.4696816  50.2545385  34.9996874  62.2427692  49.7074372  34.8609750
  61.8222215  51.1189634  35.2111335  63.3081859  51.5821767  48.2063773
  63.0171725  52.4867398  48.0910439  63.9438843  51.6238294  48.9207843
  64.2338065  48.9598615  44.7965133  64.8301638  48.7354638  44.0822096
  64.2913037  48.2183361  45.3990581  63.8063094  46.4138051  32.6315324
  64.0588615  45.8919572  31.8698787  62.8687653  46.2504196  32.7342007
  68.8506377  45.4173829  40.4390067  69.6369466  44.9993252  40.0880484
  69.1145081  46.3219921  40.6071715  69.0216454  50.8546679  35.1378724
  68.3862287  50.9281306  35.8499628  68.6913860  51.4440278  34.4597803
  74.2514804  45.3549062  41.3423045  74.9839976  44.7848279  41.5760875
  73.4954159  44.9670663  41.7829551  63.5259383  48.3166157  34.8339699
  63.4095641  47.6411060  35.5020783  63.6361642  47.8298531  34.0171852
  65.8690924  47.7776304  38.5386388  65.5049131  47.2506925  39.2499309
  66.7258039  47.3874773  38.3652873  71.7740224  39.0670636  45.8017654
  71.4423549  39.9366047  45.5778869  71.1785838  38.7506920  46.4811684
  65.5096410  42.8066203  33.5347736  65.6770813  43.6746440  33.9018207
  65.3193580  42.9693485  32.6109026  68.2671744  51.2683182  45.2013567
  67.9672467  52.1708221  45.0929374  67.9222803  51.0015366  46.0534720
  71.6668887  43.7865723  42.8811004  70.7585765  43.7181131  42.5869765
  71.6156483  44.2637667  43.7092830  65.4885631  45.2623861  34.5194403
  65.3685257  45.7080912  35.3579884  64.7938220  45.6109179  33.9607941
  63.2492523  58.0327503  38.1684534  63.1716553  58.9835328  38.2473015
  62.6454167  57.6873375  38.8259461  65.7409753  45.2055368  50.8245901
  64.9643087  45.7649288  50.8148766  66.3800316  45.6912151  51.3460771
  73.5330534  41.9882161  44.6588878  72.8904914  42.2814694  44.0128673
  73.0285462  41.8735081  45.4642075  71.1870698  45.7345334  35.3474737
  72.0988554  45.9672721  35.1722435  70.6780345  46.3182378  34.7849816
  63.9956126  48.0140821  50.3863868  64.7370810  48.5525865  50.1098692
  63.2893111  48.6407110  50.5435420  69.4711465  50.1569962  48.9836030
  69.8794821  49.7152372  48.2390662  68.7488727  49.5822589  49.2370223
  65.8242535  45.0942569  46.3569587  66.6703730  45.5181982  46.5004236
  65.7641173  44.4376193  47.0508150  69.7940280  50.7171153  42.7388319
  69.1649142  50.8816867  42.0364387  69.4065942  51.1312762  43.5099283
  73.6729512  51.6525590  40.0932682  72.9880550  52.0324492  39.5429716
  73.7573361  52.2620917  40.8264630  68.9741981  42.7546937  48.0150760
  68.7302912  43.5088998  47.4785036  69.2501911  43.1332285  48.8498007
  70.9280443  49.2985549  46.6928026  71.1397339  49.9417309  46.0162407
  70.8810192  48.4647866  46.2249956  68.5306672  41.9103370  43.5964598
  67.6691151  42.2084624  43.8881336  68.5569107  42.1273769  42.6645631
  65.3468242  50.4545561  40.0038404  65.8106587  50.7333264  39.2143026
  65.0825040  49.5529005  39.8211495  64.2837128  46.5768713  36.8127969
  64.9861171  47.0289757  37.2801895  63.9517756  45.9352532  37.4407862
  62.7317489  45.1680470  51.1879178  62.1016150  45.8496751  51.4214575
  62.6253577  45.0563551  50.2432317  72.0426271  52.1757505  44.8650383
  72.8643715  51.7737692  44.5833065  72.0388674  52.0725739  45.8166499
  59.9777207  45.1996845  39.0728579  59.1808370  45.3115539  39.5912075
  59.7502799  45.5383497  38.2069470  65.8082875  51.7241548  47.0211094
  65.8727307  52.1861955  47.8569266  65.0993799  51.0938913  47.1493404
  80.1332264  48.5196253  41.2135355  79.3795973  47.9503651  41.0579359
  80.2679806  48.4858918  42.1605990  65.5230892  53.3909656  36.8890074
  65.3876567  54.2361191  37.3174922  66.0640705  53.5928933  36.1256008
  62.0098232  39.4701235  53.5504429  61.6165178  38.9167434  54.2252074
  62.8264372  39.7811814  53.9410947  64.9266193  40.8859115  51.1424686
  65.6675906  41.4866268  51.0629148  65.1584116  40.1436752  50.5842729
  60.0707531  46.0715482  49.4202916  59.9561046  45.1700739  49.7210015
  59.2152049  46.3179179  49.0687732  67.1499369  54.0133222  51.0190416
  66.7063223  53.2269601  50.7011321  67.8116582  54.2012373  50.3534307
  69.2480607  54.2936022  49.0471818  69.2299082  55.1144903  48.5552087
  70.1700527  54.1690097  49.2721959  65.7053661  51.8080152  49.8895326
  66.2381998  51.0468440  49.6594634  65.1767742  51.5153803  50.6319480
  68.8723356  36.9140218  45.4188968  68.5287625  37.8041859  45.3428078
  69.2402319  36.7241875  44.5558553  68.8373639  46.9048829  33.9261403
  68.3220262  47.6753433  34.1649790  68.5650947  46.2313965  34.5494464
  66.4220750  41.7498529  38.9846641  65.5662346  41.3605380  38.8052280
  66.8347701  41.8290490  38.1246427  67.9519896  39.2844873  43.3838201
  67.4484692  39.2475008  42.5706006  68.2450503  40.1937615  43.4434858
  64.1962782  39.3683602  42.3904383  65.0615779  39.1726411  42.0310272
  64.2640291  39.1393954  43.3173739  73.8107913  49.6581183  35.8614576
  73.0337356  49.3192343  35.4169738  74.4899394  49.6633806  35.1869541
  68.6259942  44.7775921  35.7521184  68.3210077  45.0922070  36.6031327
  69.5790384  44.8557341  35.7948517  67.0706374  50.9366144  37.4014138
  66.5427735  50.2018904  37.0887375  66.5693876  51.7140820  37.1554106
  72.0499220  49.1315165  42.5181184  71.3922894  49.8214426  42.6061313
  72.8539619  49.5211596  42.8615171  61.8025101  41.5985810  39.7620749
  62.3768853  41.3760992  39.0293942  62.3896084  41.6674505  40.5149351
  70.8604679  47.4859537  40.5685126  71.3736560  48.1189529  41.0706836
  71.5105902  46.8860733  40.2028486  62.1294688  43.6290271  33.7816635
  61.2932001  43.9664958  34.1025909  61.9899458  43.4939251  32.8443772
  64.1047769  38.4727059  38.4895819  63.4512181  38.1576076  37.8652434
  64.0628243  37.8502800  39.2155642  65.2158974  48.7546354  30.4049111
  64.3086036  48.5235608  30.6040260  65.7130006  47.9583974  30.5923093
  68.1227053  57.4643861  33.3245797  67.4488752  57.7675558  33.9330755
  68.5092875  58.2672942  32.9751254  67.3385509  44.9608993  42.8143466
  66.4208071  45.1823940  42.6565155  67.7545653  45.0355303  41.9555174
  68.1220557  46.3600408  37.9446147  68.8692376  46.8721806  37.6353269
  68.3912147  46.0384461  38.8050540  66.3947207  48.8558949  34.9273101
  65.4858427  48.5717982  35.0245571  66.4242291  49.2758028  34.0676408
  71.6266475  52.4665539  38.6964269  71.1728802  51.6256449  38.7529459
  70.9960441  53.1026937  39.0339049  70.5699394  43.3957525  39.9264936
  69.8322151  42.8834911  40.2575179  70.8226168  42.9557906  39.1148213
  70.0699414  54.3042035  39.6314087  70.3622388  54.8647092  38.9126452
  70.5798035  54.5970596  40.3867246  70.6711022  36.1733777  40.5206705
  70.9769898  35.3131140  40.2332620  71.3963626  36.7651397  40.3205699
  56.9635378  46.5764463  38.9088303  56.7659778  45.9833824  38.1839370
  56.4082042  46.2716673  39.6264242  64.9432101  46.4687570  41.0282896
  64.9980711  45.5161406  40.9525373  64.1323303  46.6247009  41.5124195
  66.0923295  50.3967693  32.2661180  65.6542725  49.6803552  31.8066817
  66.8333736  50.6243808  31.7046271  62.8824461  45.0864630  38.7873275
  62.0692327  45.3858800  39.1938467  63.3783455  44.6920318  39.5047758
  65.0333039  55.0822386  40.7207540  64.9909218  55.3083233  39.7916072
  65.9495738  54.8485761  40.8693341  68.4798673  45.5506454  47.6188169
  68.8348061  45.7777927  48.4782635  69.1270804  45.8824831  46.9965424
  74.2096410  48.6724890  38.3237498  74.0714308  48.8626486  37.3958687
  73.8532629  49.4344273  38.7805549  62.3738536  42.6582985  44.4034510
  63.0137915  42.5171744  43.7057474  61.5416067  42.3717498  44.0273112
  74.2365790  50.7401417  43.3348770  74.6702296  50.6476706  44.1831824
  74.9497370  50.7158917  42.6968786  63.1498840  51.9585415  40.5169503
  63.9439438  51.4635736  40.3152078  62.4390532  51.4303279  40.1537208
  67.9693684  54.3403511  44.8681870  68.0230707  54.9094447  45.6359586
  67.1008466  54.5105396  44.5035907  59.4581603  46.1028497  36.5929255
  58.5279192  46.0412953  36.8099217  59.5539075  45.5804450  35.7965897
  59.3767152  42.6283310  39.1807497  59.6373970  43.5428643  39.0716657
  60.1984325  42.1607753  39.3304110  60.8492078  44.0421067  46.3506322
  61.5215131  43.8338429  45.7018970  60.0221864  43.8443153  45.9111554
  75.0981339  50.7825118  45.8681655  75.2917229  51.6870928  46.1140930
  74.9981957  50.3232537  46.7020240  66.7517650  40.6683008  48.3671982
  66.1045565  41.3672958  48.2736459  67.5218665  41.1019152  48.7348231
  70.1596448  50.9331860  51.4422536  70.0081954  50.7042412  50.5252619
  70.1501127  51.8902462  51.4553881  66.9281784  48.5063773  46.4268802
  67.8573844  48.6574933  46.2537769  66.5072814  48.5947794  45.5717449
  65.7270116  52.5314437  44.1967340  65.5881202  52.1633222  45.0693278
  64.9384712  53.0462077  44.0251298  66.3218268  57.6323534  35.5392876
  66.4970024  57.1611577  36.3538499  65.6351056  58.2589300  35.7674137
  67.2775331  51.9096040  41.5856178  66.9425164  51.8696810  42.4813827
  66.7779277  51.2440756  41.1126588  61.2519575  47.3163670  47.1108759
  61.1139373  46.5843909  47.7120298  62.1624499  47.2272570  46.8292946
  70.2134523  49.2552074  31.8593237  69.5963693  48.5298903  31.7626290
  69.7451011  50.0161435  31.5160311  63.8801876  47.0283630  46.5992438
  64.5901494  46.3876822  46.5579057  63.8371184  47.2796524  47.5218619
  71.8688654  53.9650983  49.5199018  71.8101201  53.2810203  48.8529601
  72.2708173  54.7069973  49.0679644  62.5930810  44.0148847  48.4188078
  62.0568167  43.5639586  49.0709674  62.0047518  44.1494756  47.6758542
  62.0033069  43.4737499  30.9814541  61.1262535  43.3526300  30.6176788
  62.4790822  42.6823577  30.7293430  71.8706062  51.9290567  47.7512997
  70.9832840  51.5916489  47.8739396  72.4404613  51.1973598  47.9881763
  65.4007215  56.5892019  44.7174240  65.3277387  57.3946991  45.2293545
  64.9584608  56.7883985  43.8922262  65.1896995  55.8263789  38.2277062
  64.4064517  56.3685469  38.3215287  65.8889740  56.3437769  38.6271303
  68.4993645  41.6358419  40.8711267  68.9962344  40.8828381  40.5512338
  67.7280626  41.6722735  40.3054477  76.3523402  47.3398784  42.5129559
  76.3413278  48.2223500  42.1423492  75.4840782  46.9870335  42.3184096
  67.8605899  56.4878853  46.8732399  68.5733871  57.1226318  46.8008301
  67.3695927  56.5842719  46.0572401  69.5823425  50.3930106  38.4449691
  68.6479704  50.5131568  38.2754395  69.7600094  49.4902573  38.1809701
  65.0828614  43.7775802  40.5982952  64.7126401  43.2246842  41.2863858
  65.5787706  43.1733935  40.0457952  72.9695977  46.2347425  38.9799725
  73.4356429  47.0675417  38.9060028  73.4203477  45.7692407  39.6844983
  71.0372208  52.5791246  35.9785877  71.3132052  52.4647841  36.8879751
  70.1676707  52.1808731  35.9398050  70.9412640  38.6028012  43.0190626
  70.0275719  38.8332239  43.1872833  71.3705741  38.6866456  43.8704659
  70.7119098  46.7917904  45.5190520  70.0590548  47.0393812  44.8642973
  71.0899478  45.9782042  45.1852998  67.6726272  56.8277597  39.6218691
  67.8548666  56.0099253  40.0846443  68.4959258  57.0445290  39.1843581
  68.0068437  55.7545782  36.8833739  68.5356204  55.2438237  36.2703901
  68.2696657  55.4388313  37.7479272  66.7606671  47.5337715  52.0056557
  66.0847308  47.4331844  52.6758933  67.5834305  47.3776929  52.4692555
  65.5029454  58.8404643  46.2414173  66.0547762  59.0036264  47.0063259
  65.8435647  59.4309080  45.5694198  60.4793947  41.1879792  46.8436058
  60.5435274  42.0494623  46.4313456  60.4161067  40.5753794  46.1108417
  59.9546220  43.2602925  50.4909092  60.5818259  42.8780002  51.1046617
  59.0974139  43.0417127  50.8564785  70.3540328  53.6665900  52.0962828
  70.8980232  54.2795858  51.6017783  69.7727173  54.2245479  52.6129841
  56.7311762  45.0679354  36.4227447  57.0265204  44.1590032  36.3694501
  55.8299798  45.0467093  36.1008450  68.6397841  56.7886618  43.2277856
  68.5148981  55.9876358  42.7188801  69.2976932  57.2832811  42.7391825
  60.2606009  43.1435351  42.4054996  59.5392595  43.7571318  42.2662469
  61.0499265  43.6793115  42.3271642  70.7032750  54.5895638  44.8557406
  69.7563085  54.4700989  44.7835732  71.0515523  53.7018136  44.9383667
  63.0632323  40.4789777  48.6795648  63.5866725  40.7252074  49.4421957
  62.8444656  41.3109812  48.2598785  58.4599604  42.7493452  36.5466772
  58.1312310  41.8690831  36.3641878  58.8138975  42.6941120  37.4343162
  67.7079183  54.3848354  41.0561758  67.5604145  53.4565062  41.2369328
  68.5332676  54.4068445  40.5718833  61.5741427  43.0366421  36.9142250
  61.9137500  43.5652343  36.1920858  62.0213548  43.3746828  37.6900817
  71.3113305  55.2076913  42.1426631  72.2359852  55.0019774  42.0051082
  71.1428608  54.9593314  43.0515972  64.2684868  41.4203472  46.3645318
  63.9281688  40.6211285  46.7665998  63.5623874  41.7205183  45.7922151
  64.9201340  38.5052785  44.8172641  65.7427409  38.0313263  44.6951531
  65.1639403  39.2843268  45.3171327  63.5609574  41.5341043  35.1135543
  64.2817937  41.9122296  34.6099260  62.9374878  42.2529920  35.2170521
  67.7040697  42.2386192  36.0493875  67.9204312  43.1210830  35.7482703
  67.2234764  41.8472405  35.3199517  62.4439919  45.1971905  42.6264620
  62.2984499  45.5112208  43.5188901  61.9665122  45.8156806  42.0735518
  64.3036302  42.1874453  42.6745509  64.2897870  41.2915547  42.3377807
  65.0208730  42.1945117  43.3083795  66.1562432  42.6211793  44.7198637
  65.8980210  43.5428864  44.7182967  65.6247473  42.2242228  45.4099101
  71.1008621  55.7262581  37.4988722  71.2745499  55.1609003  36.7462575
  71.5937512  56.5263475  37.3168212  63.7073197  41.0688834  37.9433079
  63.8289109  40.1405480  38.1423967  63.4175240  41.0827520  37.0311395
  66.5764388  38.7543744  41.0799799  66.5986085  38.8183077  40.1251779
  66.9932447  37.9148253  41.2740305  76.9548012  48.4899004  39.1179022
  77.3979158  47.7406329  38.7198145  76.0774522  48.4809140  38.7352754
  72.0883793  55.0429345  34.5985620  72.7834698  55.6636038  34.8172935
  72.4306944  54.1924696  34.8737998  73.9875217  52.4929051  36.1272951
  74.5126541  52.8316323  35.4022271  73.8997569  51.5576066  35.9436086
  65.6495265  56.4063124  48.2562828  65.9582392  56.1612271  49.1285527
  66.4470747  56.6109763  47.7681698  65.6715877  58.5601034  40.4868204
  65.2320868  58.0677412  41.1801061  66.4223994  58.0174001  40.2460280
  63.1189749  54.1039043  42.5590506  62.4969759  53.4409748  42.2592734
  63.7894616  54.1300175  41.8764154  63.1914277  42.5820831  52.1523012
  63.2402432  43.4582954  51.7700782  63.7336791  42.0398224  51.5794655
  73.6769123  53.1261954  51.4324149  72.8864666  53.1086093  50.8928648
  73.4402477  53.6650248  52.1873186  73.7966998  49.9754421  48.7456878
  73.8465003  49.8104428  49.6872400  73.6880921  49.1081680  48.3554758
  62.6803256  52.6542966  36.0348967  62.8291377  53.3378431  35.3815639
  63.4869700  52.6348056  36.5498422  71.0870760  45.9585349  50.0616184
  71.9880623  45.8191813  49.7700182  71.1618735  46.1239803  51.0014362
  65.4213565  43.3352203  48.9069371  64.5516875  43.6285769  48.6351959
  65.6573046  43.9192648  49.6276634  75.2985195  52.3951362  48.9898899
  75.0070003  52.7581343  49.8262360  74.6857326  51.6818370  48.8112231
  76.4980877  49.9604242  41.5101469  77.3327768  50.3994046  41.6739030
  76.6340006  49.4842895  40.6909715  73.5472383  47.5183977  47.4578957
  74.0226504  47.7111623  46.6497809  72.6237948  47.5743163  47.2122341
  60.4355889  48.6808144  37.0410035  60.1901931  47.7770474  37.2390246
  60.6051804  48.6825294  36.0989513  68.1252599  39.5531820  46.4234791
  68.6434543  40.2892847  46.0981280  67.7707732  39.8595814  47.2581550
  59.7051537  44.4136501  34.5396197  59.0120782  44.4880856  33.8836233
  59.4603289  43.6496845  35.0617714  68.3765193  35.9732103  41.9435688
  68.6566947  35.3055292  42.5696114  69.1615800  36.1661198  41.4310351
  66.1798662  55.1491097  33.5060714  65.6072629  55.7681284  33.0531186
  66.7531456  55.6990458  34.0400636  72.2474052  44.3949737  45.6907263
  73.1991475  44.4947834  45.7119487  72.0777502  43.6028005  46.2005347
  70.2688431  41.4805320  45.8766664  69.6738363  41.7610333  45.1813152
  69.9838128  41.9699221  46.6483405  69.3995922  55.4328247  34.6369296
  70.3326595  55.3673808  34.8402172  69.3119135  56.2684514  34.1783829
  72.0283938  54.7494117  31.5973244  71.9497570  54.4153981  32.4909002
  72.8493605  55.2415885  31.5964716  74.7262130  47.6155856  44.8049562
  74.6938450  46.6771857  44.9909246  75.3362753  47.6939893  44.0715387
  66.5645460  46.4851909  30.8476766  67.5104565  46.3558118  30.9165184
  66.1859705  45.7466571  31.3246195  74.8756618  44.4066900  44.8507846
  74.3595667  43.6225357  44.6637774  75.7596567  44.0785617  45.0154365
  72.5367345  38.1507915  40.8103658  72.3392166  37.8423004  41.6946990
  73.1467051  38.8769554  40.9401588  80.5438679  48.6771863  43.9455599
  81.2742068  48.4157151  44.5063302  79.9345625  47.9400585  43.9857667
  78.6253977  46.8179726  44.5430050  77.8987140  46.6835691  43.9346542
  78.2101263  47.1256554  45.3486768  66.4484153  50.5369656  52.3077423
  67.3687162  50.7148255  52.5017470  66.4133736  49.5925701  52.1557123
  64.7488378  44.4101886  30.7831652  63.8419833  44.1134999  30.8594365
  65.0264359  44.1131704  29.9165938  66.3650443  38.9538776  36.9375893
  65.5551172  38.6085861  37.3131139  67.0534860  38.6446319  37.5263504
  68.2940992  38.0316822  38.5600190  68.8472030  38.4512276  39.2190213
  68.5311078  37.1052570  38.6023146  64.3174091  44.0203896  54.3402953
  64.2170818  44.9698253  54.2715045  64.0995633  43.6922135  53.4679024
  63.5187162  41.2688821  30.9243631  64.3806326  41.5943719  31.1839448
  63.7037506  40.4820317  30.4116697  71.6719799  40.1417347  38.0678854
  71.0918468  40.8002152  37.6856906  71.4055731  39.3194692  37.6566271
  70.1223365  39.5422405  40.2700174  70.6223143  39.6538940  39.4614493
  70.7658973  39.2383458  40.9100983  64.1805361  47.4501035  53.1568015
  63.6972443  48.2501395  53.3631904  64.2666300  47.4608980  52.2035459
  70.4544677  42.3017438  37.1235202  69.5670532  42.5867089  36.9055397
  70.8698666  42.1411201  36.2762479  73.8059213  42.3263959  40.8389541
  74.5819603  42.8160411  41.1114158  73.0807347  42.7522013  41.2961411
  76.2431771  43.0391578  41.8963482  76.8376262  42.7987314  41.1856790
  76.3158355  42.3198709  42.5237018  69.5987890  52.0662113  31.2183222
  70.3023740  52.2712115  31.8340878  68.8750539  52.6338874  31.4832306
  70.4285700  47.8171974  37.3385492  70.3720902  48.2740525  36.4993125
  70.9814043  47.0562658  37.1608335  74.2390506  43.6061706  38.1635612
  73.9827441  43.2058341  38.9943819  73.6143374  44.3205500  38.0385751
  78.5502844  46.3457779  40.6706903  77.9902402  46.4150968  41.4438465
  77.9446348  46.1698764  39.9506399  71.5074588  52.5044642  33.2681682
  72.3420192  52.0725840  33.0859157  71.3458930  52.3326655  34.1958577
  71.1620480  49.0076755  34.6338021  71.1069284  48.8421026  33.6926466
  70.5366535  49.7152788  34.7900211  68.4766387  51.3125667  53.9591584
  69.3457547  51.4866319  53.5978219  67.9973138  52.1320084  53.8367314
  64.4716605  38.5084864  34.2123340  64.4595275  39.4526704  34.3691611
  65.3640027  38.3255009  33.9182801  64.4006169  57.1853754  42.2991096
  63.4501800  57.1855616  42.1855469  64.7038655  56.4386489  41.7827131
  68.2868725  35.1027641  38.4669277  67.5201120  34.5486127  38.6125959
  68.6979430  35.1749509  39.3283428  60.2910486  41.3912437  52.5574458
  61.1541947  41.0349241  52.7677782  59.7175896  41.0526331  53.2449862
  80.1358863  63.0214293  43.3636859  80.7737273  62.9021040  42.6600199
  80.0179706  63.9695137  43.4224811  76.9448569  62.9741721  43.2998384
  76.6067080  62.8582786  42.4118918  77.8138337  62.5732886  43.2799390
  72.8035385  64.8277197  39.2895275  72.2400250  64.7367134  38.5211562
  72.6887780  64.0077102  39.7697767  77.4268352  64.1276573  49.2584589
  77.4156993  63.7329371  48.3865093  77.5888991  63.3942645  49.8518361
  70.3499817  66.3228389  42.1279495  71.1421108  65.9819214  41.7125794
  70.5896467  66.4323364  43.0481648  78.3834943  68.4948165  34.6009739
  77.7322923  69.0802245  34.2143753  79.1779306  69.0254360  34.6604777
  72.3090571  65.5837302  34.9996874  73.0821447  65.0366289  34.8609750
  72.6615969  66.4481552  35.2111335  74.1475613  66.9113684  48.2063773
  73.8565479  67.8159315  48.0910439  74.7832597  66.9530212  48.9207843
  75.0731820  64.2890533  44.7965133  75.6695392  64.0646555  44.0822096
  75.1306791  63.5475278  45.3990581  74.6456848  61.7429968  32.6315324
  74.8982369  61.2211490  31.8698787  73.7081407  61.5796114  32.7342007
  79.6900131  60.7465747  40.4390067  80.4763220  60.3285170  40.0880484
  79.9538835  61.6511839  40.6071715  79.8610209  66.1838597  35.1378724
  79.2256041  66.2573224  35.8499628  79.5307615  66.7732196  34.4597803
  85.0908558  60.6840980  41.3423045  85.8233730  60.1140197  41.5760875
  84.3347914  60.2962580  41.7829551  74.3653137  63.6458074  34.8339699
  74.2489395  62.9702978  35.5020783  74.4755397  63.1590448  34.0171852
  76.7084678  63.1068221  38.5386388  76.3442885  62.5798842  39.2499309
  77.5651794  62.7166690  38.3652873  82.6133979  54.3962554  45.8017654
  82.2817303  55.2657965  45.5778869  82.0179592  54.0798838  46.4811684
  76.3490165  58.1358121  33.5347736  76.5164567  59.0038358  33.9018207
  76.1587334  58.2985403  32.6109026  79.1065498  66.5975100  45.2013567
  78.8066221  67.5000139  45.0929374  78.7616558  66.3307283  46.0534720
  72.5577980  63.0488897  41.2350271  71.6328476  62.9165111  41.4427963
  72.8062393  63.8283116  41.7320214  82.5062642  59.1157640  42.8811004
  81.5979519  59.0473049  42.5869765  82.4550238  59.5929585  43.7092830
  76.3279386  60.5915779  34.5194403  76.2079011  61.0372829  35.3579884
  75.6331974  60.9401096  33.9607941  69.9186791  62.6922170  42.0694060
  70.0479172  62.9456649  42.9833472  69.2384242  63.2849878  41.7498715
  74.0886278  73.3619420  38.1684534  74.0110308  74.3127245  38.2473015
  73.4847922  73.0165293  38.8259461  76.5803508  60.5347286  50.8245901
  75.8036842  61.0941206  50.8148766  77.2194071  61.0204069  51.3460771
  84.3724288  57.3174079  44.6588878  83.7298669  57.6106612  44.0128673
  83.8679217  57.2026999  45.4642075  82.0264452  61.0637252  35.3474737
  82.9382308  61.2964639  35.1722435  81.5174099  61.6474296  34.7849816
  74.8349880  63.3432739  50.3863868  75.5764564  63.8817783  50.1098692
  74.1286866  63.9699028  50.5435420  80.3105220  65.4861880  48.9836030
  80.7188576  65.0444290  48.2390662  79.5882481  64.9114507  49.2370223
  76.6636290  60.4234486  46.3569587  77.5097485  60.8473900  46.5004236
  76.6034927  59.7668111  47.0508150  80.6334034  66.0463070  42.7388319
  80.0042897  66.2108784  42.0364387  80.2459696  66.4604680  43.5099283
  84.5123266  66.9817508  40.0932682  83.8274304  67.3616409  39.5429716
  84.5967116  67.5912835  40.8264630  79.8135735  58.0838855  48.0150760
  79.5696667  58.8380915  47.4785036  80.0895666  58.4624202  48.8498007
  81.7674198  64.6277467  46.6928026  81.9791093  65.2709227  46.0162407
  81.7203946  63.7939784  46.2249956  79.3700427  57.2395288  43.5964598
  78.5084906  57.5376541  43.8881336  79.3962861  57.4565687  42.6645631
  76.1861996  65.7837478  40.0038404  76.6500342  66.0625181  39.2143026
  75.9218794  64.8820923  39.8211495  73.0786077  65.3308960  42.9418167
  73.6487434  65.7596228  42.3035652  73.6694189  65.0491545  43.6402353
  75.1230882  61.9060631  36.8127969  75.8254926  62.3581674  37.2801895
  74.7911511  61.2644450  37.4407862  73.5711244  60.4972387  51.1879178
  72.9409904  61.1788668  51.4214575  73.4647332  60.3855469  50.2432317
  68.8656216  60.1644183  42.1145103  68.0755270  60.4201712  41.6385213
  69.3567464  60.9792521  42.2197143  82.8820026  67.5049423  44.8650383
  83.7037470  67.1029610  44.5833065  82.8782429  67.4017657  45.8166499
  70.8170962  60.5288763  39.0728579  70.0202125  60.6407457  39.5912075
  70.5896554  60.8675415  38.2069470  76.6476629  67.0533466  47.0211094
  76.7121062  67.5153873  47.8569266  75.9387553  66.4230831  47.1493404
  67.1493919  60.4174674  44.5460093  67.4001958  61.3021684  44.8117669
  67.6853468  60.2379275  43.7735185  90.9726019  63.8488171  41.2135355
  90.2189727  63.2795569  41.0579359  91.1073560  63.8150836  42.1605990
  76.3624647  68.7201573  36.8890074  76.2270322  69.5653109  37.3174922
  76.9034459  68.9220851  36.1256008  72.8491987  54.7993153  53.5504429
  72.4558932  54.2459352  54.2252074  73.6658127  55.1103732  53.9410947
  69.8154044  66.2377011  37.4617999  70.3278565  67.0320262  37.6123564
  70.4676757  65.5403302  37.3951601  71.6248929  69.3542768  39.5440752
  71.8015557  70.2760732  39.3561736  72.4205762  69.0401187  39.9735132
  75.7659948  56.2151032  51.1424686  76.5069661  56.8158185  51.0629148
  75.9977870  55.4728670  50.5842729  70.9101286  61.4007400  49.4202916
  70.7954801  60.4992657  49.7210015  70.0545803  61.6471096  49.0687732
  77.9893123  69.3425140  51.0190416  77.5456977  68.5561518  50.7011321
  78.6510337  69.5304290  50.3534307  80.0874361  69.6227940  49.0471818
  80.0692837  70.4436821  48.5552087  81.0094281  69.4982015  49.2721959
  76.5447415  67.1372069  49.8895326  77.0775752  66.3760357  49.6594634
  76.0161497  66.8445721  50.6319480  79.7117110  52.2432135  45.4188968
  79.3681380  53.1333777  45.3428078  80.0796073  52.0533793  44.5558553
  67.7802961  64.5665666  38.2377570  68.6178183  64.9762674  38.0211278
  67.9581229  63.6265108  38.2077764  79.6767393  62.2340746  33.9261403
  79.1614017  63.0045351  34.1649790  79.4044702  61.5605882  34.5494464
  77.2614504  57.0790447  38.9846641  76.4056101  56.6897297  38.8052280
  77.6741456  57.1582408  38.1246427  78.7913651  54.6136790  43.3838201
  78.2878446  54.5766926  42.5706006  79.0844258  55.5229533  43.4434858
  75.0356537  54.6975520  42.3904383  75.9009533  54.5018329  42.0310272
  75.1034046  54.4685872  43.3173739  84.6501667  64.9873101  35.8614576
  83.8731110  64.6484260  35.4169738  85.3293148  64.9925724  35.1869541
  79.4653696  60.1067838  35.7521184  79.1603832  60.4213988  36.6031327
  80.4184138  60.1849258  35.7948517  77.9100128  66.2658062  37.4014138
  77.3821490  65.5310821  37.0887375  77.4087631  67.0432738  37.1554106
  82.8892974  64.4607082  42.5181184  82.2316649  65.1506344  42.6061313
  83.6933373  64.8503514  42.8615171  72.6418856  56.9277728  39.7620749
  73.2162608  56.7052909  39.0293942  73.2289838  56.9966423  40.5149351
  81.6998433  62.8151455  40.5685126  82.2130315  63.4481447  41.0706836
  82.3499657  62.2152650  40.2028486  72.9688443  58.9582189  33.7816635
  72.1325755  59.2956876  34.1025909  72.8293213  58.8231169  32.8443772
  74.9441524  53.8018977  38.4895819  74.2905936  53.4867994  37.8652434
  74.9021998  53.1794717  39.2155642  76.0552728  64.0838272  30.4049111
  75.1479790  63.8527525  30.6040260  76.5523760  63.2875891  30.5923093
  78.9620807  72.7935779  33.3245797  78.2882506  73.0967476  33.9330755
  79.3486629  73.5964860  32.9751254  78.1779264  60.2900910  42.8143466
  77.2601825  60.5115857  42.6565155  78.5939407  60.3647221  41.9555174
  78.9614312  61.6892326  37.9446147  79.7086131  62.2013723  37.6353269
  79.2305901  61.3676379  38.8050540  77.2340962  64.1850867  34.9273101
  76.3252181  63.9009900  35.0245571  77.2636046  64.6049945  34.0676408
  82.4660229  67.7957456  38.6964269  82.0122556  66.9548366  38.7529459
  81.8354196  68.4318855  39.0339049  81.4093149  58.7249442  39.9264936
  80.6715906  58.2126829  40.2575179  81.6619922  58.2849824  39.1148213
  80.9093168  69.6333953  39.6314087  81.2016143  70.1939010  38.9126452
  81.4191789  69.9262514  40.3867246  81.5104776  51.5025694  40.5206705
  81.8163653  50.6423058  40.2332620  82.2357381  52.0943315  40.3205699
  67.8029132  61.9056381  38.9088303  67.6053532  61.3125742  38.1839370
  67.2475796  61.6008591  39.6264242  75.7825856  61.7979487  41.0282896
  75.8374466  60.8453324  40.9525373  74.9717058  61.9538927  41.5124195
  76.9317050  65.7259611  32.2661180  76.4936480  65.0095469  31.8066817
  77.6727490  65.9535725  31.7046271  73.7218216  60.4156547  38.7873275
  72.9086081  60.7150718  39.1938467  74.2177210  60.0212236  39.5047758
  75.8726794  70.4114304  40.7207540  75.8302972  70.6375150  39.7916072
  76.7889493  70.1777679  40.8693341  79.3192427  60.8798372  47.6188169
  79.6741815  61.1069845  48.4782635  79.9664559  61.2116748  46.9965424
  85.0490164  64.0016808  38.3237498  84.9108063  64.1918404  37.3958687
  84.6926383  64.7636190  38.7805549  73.2132291  57.9874903  44.4034510
  73.8531670  57.8463662  43.7057474  72.3809821  57.7009416  44.0273112
  85.0759544  66.0693335  43.3348770  85.5096051  65.9768624  44.1831824
  85.7891125  66.0450835  42.6968786  73.9892594  67.2877333  40.5169503
  74.7833193  66.7927653  40.3152078  73.2784287  66.7595196  40.1537208
  78.8087439  69.6695429  44.8681870  78.8624461  70.2386365  45.6359586
  77.9402220  69.8397314  44.5035907  70.2975358  61.4320415  36.5929255
  69.3672946  61.3704870  36.8099217  70.3932830  60.9096368  35.7965897
  70.2160907  57.9575228  39.1807497  70.4767724  58.8720561  39.0716657
  71.0378079  57.4899670  39.3304110  71.6885832  59.3712985  46.3506322
  72.3608886  59.1630347  45.7018970  70.8615619  59.1735071  45.9111554
  85.9375094  66.1117035  45.8681655  86.1310984  67.0162846  46.1140930
  85.8375712  65.6524454  46.7020240  77.5911404  55.9974926  48.3671982
  76.9439319  56.6964875  48.2736459  78.3612420  56.4311070  48.7348231
  80.9990202  66.2623778  51.4422536  80.8475709  66.0334330  50.5252619
  80.9894882  67.2194379  51.4553881  77.7675539  63.8355691  46.4268802
  78.6967599  63.9866850  46.2537769  77.3466569  63.9239712  45.5717449
  76.5663870  67.8606355  44.1967340  76.4274956  67.4925140  45.0693278
  75.7778467  68.3753995  44.0251298  77.1612022  72.9615452  35.5392876
  77.3363778  72.4903495  36.3538499  76.4744810  73.5881218  35.7674137
  78.1169086  67.2387958  41.5856178  77.7818918  67.1988728  42.4813827
  77.6173031  66.5732674  41.1126588  72.0913330  62.6455588  47.1108759
  71.9533127  61.9135827  47.7120298  73.0018253  62.5564488  46.8292946
  81.0528277  64.5843992  31.8593237  80.4357448  63.8590820  31.7626290
  80.5844766  65.3453352  31.5160311  74.7195630  62.3575547  46.5992438
  75.4295249  61.7168739  46.5579057  74.6764938  62.6088442  47.5218619
  82.7082409  69.2942901  49.5199018  82.6494955  68.6102121  48.8529601
  83.1101927  70.0361891  49.0679644  73.4324564  59.3440765  48.4188078
  72.8961921  58.8931504  49.0709674  72.8441273  59.4786674  47.6758542
  72.8426823  58.8029416  30.9814541  71.9656289  58.6818217  30.6176788
  73.3184576  58.0115495  30.7293430  82.7099816  67.2582484  47.7512997
  81.8226595  66.9208406  47.8739396  83.2798367  66.5265516  47.9881763
  64.3628963  63.5906576  41.0756049  65.0500003  63.2768306  40.4877064
  64.2077092  64.4947941  40.8023300  69.1663685  58.4796773  45.5041072
  69.0821874  57.8722442  44.7691482  68.3446392  58.9705791  45.5050569
  76.2400970  71.9183937  44.7174240  76.1671141  72.7238908  45.2293545
  75.7978363  72.1175903  43.8922262  76.0290749  71.1555707  38.2277062
  75.2458271  71.6977387  38.3215287  76.7283494  71.6729686  38.6271303
  79.3387399  56.9650336  40.8711267  79.8356099  56.2120299  40.5512338
  78.5674381  57.0014653  40.3054477  87.1917157  62.6690702  42.5129559
  87.1807033  63.5515417  42.1423492  86.3234536  62.3162253  42.3184096
  78.6999653  71.8170771  46.8732399  79.4127625  72.4518236  46.8008301
  78.2089682  71.9134637  46.0572401  80.4217180  65.7222024  38.4449691
  79.4873459  65.8423486  38.2754395  80.5993848  64.8194490  38.1809701
  75.9222368  59.1067719  40.5982952  75.5520156  58.5538760  41.2863858
  76.4181460  58.5025853  40.0457952  83.8089731  61.5639343  38.9799725
  84.2750184  62.3967334  38.9060028  84.2597232  61.0984324  39.6844983
  81.8765962  67.9083164  35.9785877  82.1525806  67.7939759  36.8879751
  81.0070461  67.5100649  35.9398050  81.7806394  53.9319930  43.0190626
  80.8669474  54.1624157  43.1872833  82.2099496  54.0158374  43.8704659
  81.5512853  62.1209822  45.5190520  80.8984303  62.3685729  44.8642973
  81.9293232  61.3073960  45.1852998  78.5120026  72.1569515  39.6218691
  78.6942421  71.3391171  40.0846443  79.3353012  72.3737207  39.1843581
  78.8462192  71.0837700  36.8833739  79.3749958  70.5730155  36.2703901
  79.1090412  70.7680230  37.7479272  77.6000426  62.8629633  52.0056557
  76.9241063  62.7623762  52.6758933  78.4228059  62.7068847  52.4692555
  72.2017940  72.1352817  39.6431515  71.5328315  72.6198944  39.1595555
  72.0630810  72.3822037  40.5574894  63.9396939  61.6707170  43.3473516
  63.9781039  61.1370760  44.1410634  63.4337232  61.1442375  42.7284493
  76.3423208  74.1696560  46.2414173  76.8941516  74.3328182  47.0063259
  76.6829402  74.7600998  45.5694198  71.3187702  56.5171710  46.8436058
  71.3829028  57.3786541  46.4313456  71.2554822  55.9045712  46.1108417
  70.7939974  58.5894843  50.4909092  71.4212013  58.2071920  51.1046617
  69.9367893  58.3709045  50.8564785  81.1934083  68.9957818  52.0962828
  81.7373987  69.6087776  51.6017783  80.6120928  69.5537396  52.6129841
  67.5705517  60.3971272  36.4227447  67.8658958  59.4881950  36.3694501
  66.6693553  60.3759011  36.1008450  79.4791596  72.1178536  43.2277856
  79.3542735  71.3168276  42.7188801  80.1370687  72.6124729  42.7391825
  71.0999764  58.4727268  42.4054996  70.3786350  59.0863236  42.2662469
  71.8893020  59.0085033  42.3271642  81.5426504  69.9187556  44.8557406
  80.5956840  69.7992907  44.7835732  81.8909277  69.0310054  44.9383667
  73.9026077  55.8081695  48.6795648  74.4260479  56.0543991  49.4421957
  73.6838411  56.6401730  48.2598785  69.2993359  58.0785369  36.5466772
  68.9706065  57.1982748  36.3641878  69.6532729  58.0233038  37.4343162
  78.5472937  69.7140272  41.0561758  78.3997900  68.7856980  41.2369328
  79.3726431  69.7360363  40.5718833  72.4135182  58.3658339  36.9142250
  72.7531254  58.8944260  36.1920858  72.8607302  58.7038745  37.6900817
  82.1507059  70.5368831  42.1426631  83.0753607  70.3311692  42.0051082
  81.9822363  70.2885232  43.0515972  75.1078623  56.7495390  46.3645318
  74.7675443  55.9503203  46.7665998  74.4017629  57.0497101  45.7922151
  75.7595094  53.8344702  44.8172641  76.5821164  53.3605181  44.6951531
  76.0033158  54.6135186  45.3171327  74.4003329  56.8632961  35.1135543
  75.1211691  57.2414214  34.6099260  73.7768633  57.5821838  35.2170521
  78.5434452  57.5678110  36.0493875  78.7598066  58.4502748  35.7482703
  78.0628519  57.1764323  35.3199517  73.2833673  60.5263823  42.6264620
  73.1378254  60.8404126  43.5188901  72.8058877  61.1448723  42.0735518
  75.1430056  57.5166371  42.6745509  75.1291625  56.6207464  42.3377807
  75.8602484  57.5237035  43.3083795  76.9956187  57.9503711  44.7198637
  76.7373965  58.8720782  44.7182967  76.4641227  57.5534146  45.4099101
  81.9402375  71.0554498  37.4988722  82.1139253  70.4900921  36.7462575
  82.4331267  71.8555393  37.3168212  67.7579335  63.0669167  45.5652281
  67.2132803  63.8428975  45.6972555  68.6358685  63.4139972  45.4071402
  74.5466952  56.3980751  37.9433079  74.6682863  55.4697397  38.1423967
  74.2568994  56.4119437  37.0311395  77.4158142  54.0835662  41.0799799
  77.4379839  54.1474995  40.1251779  77.8326201  53.2440170  41.2740305
  87.7941767  63.8190921  39.1179022  88.2372913  63.0698246  38.7198145
  86.9168277  63.8101058  38.7352754  82.9277548  70.3721263  34.5985620
  83.6228453  70.9927955  34.8172935  83.2700698  69.5216614  34.8737998
  68.5445357  62.1939064  48.4582438  67.8027093  62.3421699  49.0447068
  68.2238101  62.4547329  47.5949187  84.8268971  67.8220968  36.1272951
  85.3520295  68.1608241  35.4022271  84.7391324  66.8867984  35.9436086
  76.4889020  71.7355042  48.2562828  76.7976146  71.4904189  49.1285527
  77.2864502  71.9401680  47.7681698  76.5109632  73.8892951  40.4868204
  76.0714622  73.3969330  41.1801061  77.2617749  73.3465919  40.2460280
  73.9583504  69.4330961  42.5590506  73.3363513  68.7701666  42.2592734
  74.6288371  69.4592092  41.8764154  67.1910576  67.9990819  41.4481766
  66.3542484  67.5712993  41.2665767  67.1634221  68.1923262  42.3852557
  74.0308031  57.9112749  52.1523012  74.0796187  58.7874871  51.7700782
  74.5730546  57.3690142  51.5794655  84.5162877  68.4553872  51.4324149
  83.7258421  68.4378011  50.8928648  84.2796232  68.9942166  52.1873186
  84.6360752  65.3046338  48.7456878  84.6858757  65.1396346  49.6872400
  84.5274676  64.4373597  48.3554758  73.5197011  67.9834884  36.0348967
  73.6685131  68.6670348  35.3815639  74.3263454  67.9639974  36.5498422
  81.9264515  61.2877266  50.0616184  82.8274377  61.1483731  49.7700182
  82.0012489  61.4531721  51.0014362  76.2607320  58.6644121  48.9069371
  75.3910629  58.9577687  48.6351959  76.4966800  59.2484566  49.6276634
  86.1378949  67.7243280  48.9898899  85.8463757  68.0873260  49.8262360
  85.5251080  67.0110288  48.8112231  87.3374631  65.2896160  41.5101469
  88.1721523  65.7285964  41.6739030  87.4733760  64.8134813  40.6909715
  84.3866137  62.8475894  47.4578957  84.8620259  63.0403541  46.6497809
  83.4631703  62.9035080  47.2122341  71.2749644  64.0100062  37.0410035
  71.0295686  63.1062392  37.2390246  71.4445558  64.0117212  36.0989513
  78.9646354  54.8823738  46.4234791  79.4828298  55.6184765  46.0981280
  78.6101487  55.1887731  47.2581550  70.5445291  59.7428419  34.5396197
  69.8514536  59.8172774  33.8836233  70.2997043  58.9788763  35.0617714
  79.2158948  51.3024020  41.9435688  79.4960702  50.6347210  42.5696114
  80.0009555  51.4953116  41.4310351  77.0192416  70.4783014  33.5060714
  76.4466384  71.0973201  33.0531186  77.5925210  71.0282376  34.0400636
  83.0867806  59.7241654  45.6907263  84.0385229  59.8239752  45.7119487
  82.9171257  58.9319923  46.2005347  81.1082186  56.8097238  45.8766664
  80.5132118  57.0902250  45.1813152  80.8231882  57.2991139  46.6483405
  80.2389676  70.7620164  34.6369296  81.1720349  70.6965726  34.8402172
  80.1512889  71.5976431  34.1783829  82.8677693  70.0786035  31.5973244
  82.7891324  69.7445898  32.4909002  83.6887360  70.5707803  31.5964716
  85.5655884  62.9447774  44.8049562  85.5332204  62.0063775  44.9909246
  86.1756508  63.0231811  44.0715387  77.4039215  61.8143827  30.8476766
  78.3498320  61.6850035  30.9165184  77.0253460  61.0758489  31.3246195
  85.7150373  59.7358818  44.8507846  85.1989421  58.9517274  44.6637774
  86.5990321  59.4077534  45.0154365  83.3761099  53.4799833  40.8103658
  83.1785921  53.1714921  41.6946990  83.9860805  54.2061472  40.9401588
  91.3832434  64.0063781  43.9455599  92.1135822  63.7449069  44.5063302
  90.7739379  63.2692503  43.9857667  89.4647731  62.1471644  44.5430050
  88.7380895  62.0127608  43.9346542  89.0495018  62.4548472  45.3486768
  75.5882132  59.7393804  30.7831652  74.6813587  59.4426916  30.8594365
  75.8658113  59.4423622  29.9165938  66.5060072  61.0600167  41.2330698
  66.1862857  60.2065475  40.9405072  65.9593501  61.2748745  41.9888665
  70.2839980  63.7762608  44.9500205  70.5025990  64.7079716  44.9688238
  70.6965754  63.4170582  45.7355008  77.2044198  54.2830693  36.9375893
  76.3944926  53.9377778  37.3131139  77.8928615  53.9738237  37.5263504
  79.1334746  53.3608740  38.5600190  79.6865785  53.7804193  39.2190213
  79.3704832  52.4344488  38.6023146  75.1567845  59.3495814  54.3402953
  75.0564572  60.2990171  54.2715045  74.9389387  59.0214053  53.4679024
  74.3580917  56.5980739  30.9243631  75.2200081  56.9235637  31.1839448
  74.5431261  55.8112235  30.4116697  66.3748332  64.6803078  43.2023820
  65.6811804  64.2657031  42.6893774  67.1221323  64.7223615  42.6057239
  82.5113553  55.4709265  38.0678854  81.9312222  56.1294069  37.6856906
  82.2449486  54.6486610  37.6566271  80.9617120  54.8714323  40.2700174
  81.4616898  54.9830857  39.4614493  81.6052727  54.5675376  40.9100983
  68.2885075  64.6121332  41.0789834  68.2655763  64.7109019  40.1271718
  68.5985711  65.4586483  41.4007001  70.9472453  66.6697487  45.1936449
  71.9015706  66.6381430  45.1266380  70.7484976  66.2088111  46.0086675
  71.5371835  65.2398603  47.7607247  72.3564724  65.7342682  47.7842084
  71.8108643  64.3230571  47.7324814  81.2938431  57.6309356  37.1235202
  80.4064286  57.9159006  36.9055397  81.7092420  57.4703119  36.2762479
  84.6452967  57.6555877  40.8389541  85.4213357  58.1452329  41.1114158
  83.9201101  58.0813931  41.2961411  87.0825526  58.3683496  41.8963482
  87.6770017  58.1279232  41.1856790  87.1552110  57.6490626  42.5237018
  80.4381645  67.3954030  31.2183222  81.1417495  67.6004033  31.8340878
  79.7144293  67.9630792  31.4832306  81.2679455  63.1463891  37.3385492
  81.2114656  63.6032443  36.4993125  81.8207797  62.3854576  37.1608335
  85.0784261  58.9353623  38.1635612  84.8221195  58.5350259  38.9943819
  84.4537129  59.6497417  38.0385751  89.3896599  61.6749697  40.6706903
  88.8296157  61.7442886  41.4438465  88.7840102  61.4990681  39.9506399
  82.3468342  67.8336559  33.2681682  83.1813946  67.4017758  33.0859157
  82.1852685  67.6618573  34.1958577  82.0014234  64.3368673  34.6338021
  81.9463038  64.1712944  33.6926466  81.3760290  65.0444706  34.7900211
  66.7906749  59.5736737  48.4599444  67.4365613  59.0635691  48.9486669
  66.5823900  60.3105419  49.0342869  75.3110360  53.8376782  34.2123340
  75.2989030  54.7818622  34.3691611  76.2033782  53.6546927  33.9182801
  75.2399924  72.5145672  42.2991096  74.2895555  72.5147534  42.1855469
  75.5432410  71.7678407  41.7827131  79.1262479  50.4319558  38.4669277
  78.3594875  49.8778045  38.6125959  79.5373184  50.5041427  39.3283428
  71.1304240  56.7204354  52.5574458  71.9935702  56.3641159  52.7677782
  70.5569651  56.3818249  53.2449862  90.9752617  78.3506211  43.3636859
  91.6131027  78.2312958  42.6600199  90.8573460  79.2987054  43.4224811
  87.7842323  78.3033639  43.2998384  87.4460835  78.1874703  42.4118918
  88.6532092  77.9024804  43.2799390  83.6429139  80.1569115  39.2895275
  83.0794004  80.0659052  38.5211562  83.5281534  79.3369020  39.7697767
  88.2662106  79.4568490  49.2584589  88.2550747  79.0621289  48.3865093
  88.4282746  78.7234563  49.8518361  81.1893571  81.6520307  42.1279495
  81.9814863  81.3111131  41.7125794  81.4290221  81.7615282  43.0481648
  89.2228698  83.8240083  34.6009739  88.5716678  84.4094163  34.2143753
  90.0173061  84.3546278  34.6604777  83.1484325  80.9129220  34.9996874
  83.9215201  80.3658207  34.8609750  83.5009724  81.7773469  35.2111335
  84.9869368  82.2405602  48.2063773  84.6959234  83.1451233  48.0910439
  85.6226352  82.2822130  48.9207843  85.9125574  79.6182451  44.7965133
  86.5089147  79.3938473  44.0822096  85.9700546  78.8767196  45.3990581
  85.4850603  77.0721886  32.6315324  85.7376124  76.5503407  31.8698787
  84.5475162  76.9088031  32.7342007  90.5293886  76.0757664  40.4390067
  91.3156975  75.6577088  40.0880484  90.7932590  76.9803757  40.6071715
  90.7003963  81.5130515  35.1378724  90.0649796  81.5865141  35.8499628
  90.3701369  82.1024114  34.4597803  95.9302313  76.0132898  41.3423045
  96.6627485  75.4432114  41.5760875  95.1741668  75.6254498  41.7829551
  85.2046892  78.9749992  34.8339699  85.0883150  78.2994895  35.5020783
  85.3149151  78.4882366  34.0171852  87.5478432  78.4360139  38.5386388
  87.1836640  77.9090760  39.2499309  88.4045548  78.0458608  38.3652873
  93.4527733  69.7254472  45.8017654  93.1211058  70.5949883  45.5778869
  92.8573347  69.4090756  46.4811684  87.1883919  73.4650039  33.5347736
  87.3558322  74.3330275  33.9018207  86.9981089  73.6277320  32.6109026
  89.9459253  81.9267018  45.2013567  89.6459976  82.8292056  45.0929374
  89.6010312  81.6599201  46.0534720  83.3971734  78.3780815  41.2350271
  82.4722231  78.2457029  41.4427963  83.6456147  79.1575034  41.7320214
  93.3456396  74.4449558  42.8811004  92.4373274  74.3764966  42.5869765
  93.2943992  74.9221503  43.7092830  87.1673140  75.9207696  34.5194403
  87.0472766  76.3664747  35.3579884  86.4725729  76.2693014  33.9607941
  80.7580545  78.0214088  42.0694060  80.8872926  78.2748567  42.9833472
  80.0777996  78.6141796  41.7498715  84.9280032  88.6911338  38.1684534
  84.8504062  89.6419163  38.2473015  84.3241676  88.3457211  38.8259461
  87.4197262  75.8639203  50.8245901  86.6430596  76.4233124  50.8148766
  88.0587825  76.3495986  51.3460771  95.2118043  72.6465996  44.6588878
  94.5692423  72.9398529  44.0128673  94.7072971  72.5318917  45.4642075
  92.8658207  76.3929169  35.3474737  93.7776063  76.6256556  35.1722435
  92.3567854  76.9766214  34.7849816  85.6743635  78.6724657  50.3863868
  86.4158319  79.2109701  50.1098692  84.9680620  79.2990946  50.5435420
  91.1498974  80.8153797  48.9836030  91.5582330  80.3736208  48.2390662
  90.4276236  80.2406425  49.2370223  87.5030044  75.7526404  46.3569587
  88.3491239  76.1765818  46.5004236  87.4428682  75.0960028  47.0508150
  91.4727789  81.3754988  42.7388319  90.8436651  81.5400702  42.0364387
  91.0853451  81.7896597  43.5099283  95.3517021  82.3109426  40.0932682
  94.6668059  82.6908327  39.5429716  95.4360870  82.9204752  40.8264630
  90.6529490  73.4130772  48.0150760  90.4090421  74.1672833  47.4785036
  90.9289420  73.7916120  48.8498007  92.6067952  79.9569385  46.6928026
  92.8184848  80.6001145  46.0162407  92.5597701  79.1231701  46.2249956
  90.2094181  72.5687205  43.5964598  89.3478660  72.8668459  43.8881336
  90.2356616  72.7857604  42.6645631  87.0255751  81.1129396  40.0038404
  87.4894096  81.3917099  39.2143026  86.7612549  80.2112841  39.8211495
  83.9179832  80.6600878  42.9418167  84.4881189  81.0888146  42.3035652
  84.5087944  80.3783462  43.6402353  85.9624637  77.2352548  36.8127969
  86.6648680  77.6873592  37.2801895  85.6305265  76.5936367  37.4407862
  84.4104998  75.8264305  51.1879178  83.7803659  76.5080586  51.4214575
  84.3041086  75.7147387  50.2432317  79.7049971  75.4936101  42.1145103
  78.9149025  75.7493630  41.6385213  80.1961218  76.3084439  42.2197143
  93.7213780  82.8341340  44.8650383  94.5431224  82.4321527  44.5833065
  93.7176183  82.7309574  45.8166499  81.6564716  75.8580680  39.0728579
  80.8595879  75.9699375  39.5912075  81.4290308  76.1967332  38.2069470
  87.4870384  82.3825384  47.0211094  87.5514816  82.8445791  47.8569266
  86.7781308  81.7522748  47.1493404  77.9887674  75.7466591  44.5460093
  78.2395712  76.6313601  44.8117669  78.5247222  75.5671193  43.7735185
 101.8119773  79.1780089  41.2135355 101.0583482  78.6087487  41.0579359
 101.9467315  79.1442753  42.1605990  87.2018401  84.0493491  36.8890074
  87.0664076  84.8945027  37.3174922  87.7428214  84.2512769  36.1256008
  80.6547799  81.5668929  37.4617999  81.1672319  82.3612179  37.6123564
  81.3070512  80.8695219  37.3951601  82.4642683  84.6834685  39.5440752
  82.6409312  85.6052650  39.3561736  83.2599517  84.3693105  39.9735132
  86.6053702  71.5442950  51.1424686  87.3463415  72.1450103  51.0629148
  86.8371625  70.8020588  50.5842729  81.7495040  76.7299317  49.4202916
  81.6348555  75.8284574  49.7210015  80.8939558  76.9763014  49.0687732
  88.8286878  84.6717058  51.0190416  88.3850732  83.8853436  50.7011321
  89.4904091  84.8596208  50.3534307  83.5873999  86.2012859  45.5451095
  84.1381424  86.0729922  44.7728089  82.7485475  86.5007748  45.1945988
  90.9268116  84.9519857  49.0471818  90.9086591  85.7728738  48.5552087
  91.8488036  84.8273933  49.2721959  87.3841170  82.4663987  49.8895326
  87.9169507  81.7052275  49.6594634  86.8555251  82.1737639  50.6319480
  90.5510865  67.5724053  45.4188968  90.2075134  68.4625695  45.3428078
  90.9189828  67.3825711  44.5558553  78.6196716  79.8957583  38.2377570
  79.4571938  80.3054592  38.0211278  78.7974983  78.9557025  38.2077764
  90.5161148  77.5632664  33.9261403  90.0007771  78.3337269  34.1649790
  90.2438456  76.8897800  34.5494464  88.1008259  72.4082365  38.9846641
  87.2449855  72.0189215  38.8052280  88.5135210  72.4874326  38.1246427
  89.6307405  69.9428708  43.3838201  89.1272201  69.9058843  42.5706006
  89.9238012  70.8521451  43.4434858  85.8750291  70.0267438  42.3904383
  86.7403288  69.8310246  42.0310272  85.9427800  69.7977790  43.3173739
  95.4895422  80.3165019  35.8614576  94.7124865  79.9776178  35.4169738
  96.1686903  80.3217642  35.1869541  90.3047451  75.4359756  35.7521184
  89.9997586  75.7505905  36.6031327  91.2577893  75.5141176  35.7948517
  88.7493883  81.5949979  37.4014138  88.2215244  80.8602739  37.0887375
  88.2481385  82.3724656  37.1554106  93.7286729  79.7899000  42.5181184
  93.0710403  80.4798261  42.6061313  94.5327128  80.1795432  42.8615171
  83.4812610  72.2569646  39.7620749  84.0556362  72.0344827  39.0293942
  84.0683593  72.3258340  40.5149351  92.5392187  78.1443373  40.5685126
  93.0524069  78.7773364  41.0706836  93.1893411  77.5444568  40.2028486
  83.8082197  74.2874107  33.7816635  82.9719510  74.6248793  34.1025909
  83.6686967  74.1523086  32.8443772  85.7835278  69.1310895  38.4895819
  85.1299690  68.8159912  37.8652434  85.7415752  68.5086635  39.2155642
  86.8946483  79.4130190  30.4049111  85.9873545  79.1819443  30.6040260
  87.3917515  78.6167809  30.5923093  89.8014562  88.1227697  33.3245797
  89.1276260  88.4259394  33.9330755  90.1880384  88.9256777  32.9751254
  89.0173018  75.6192828  42.8143466  88.0995580  75.8407775  42.6565155
  89.4333162  75.6939139  41.9555174  89.8008066  77.0184244  37.9446147
  90.5479885  77.5305641  37.6353269  90.0699656  76.6968297  38.8050540
  88.0734716  79.5142785  34.9273101  87.1645936  79.2301817  35.0245571
  88.1029800  79.9341863  34.0676408  93.3053984  83.1249374  38.6964269
  92.8516311  82.2840284  38.7529459  92.6747950  83.7610772  39.0339049
  92.2486903  74.0541360  39.9264936  91.5109660  73.5418746  40.2575179
  92.5013677  73.6141742  39.1148213  91.7486923  84.9625871  39.6314087
  92.0409897  85.5230928  38.9126452  92.2585544  85.2554432  40.3867246
  92.3498531  66.8317612  40.5206705  92.6557407  65.9714975  40.2332620
  93.0751135  67.4235232  40.3205699  78.6422887  77.2348299  38.9088303
  78.4447286  76.6417659  38.1839370  78.0869551  76.9300509  39.6264242
  86.6219610  77.1271405  41.0282896  86.6768220  76.1745242  40.9525373
  85.8110812  77.2830844  41.5124195  87.7710804  81.0551528  32.2661180
  87.3330234  80.3387387  31.8066817  88.5121245  81.2827643  31.7046271
  84.5611970  75.7448465  38.7873275  83.7479836  76.0442635  39.1938467
  85.0570964  75.3504154  39.5047758  86.7120548  85.7406222  40.7207540
  86.6696727  85.9667068  39.7916072  87.6283247  85.5069596  40.8693341
  90.1586182  76.2090289  47.6188169  90.5135570  76.4361762  48.4782635
  90.8058313  76.5408666  46.9965424  95.8883919  79.3308725  38.3237498
  95.7501817  79.5210321  37.3958687  95.5320138  80.0928108  38.7805549
  84.0526045  73.3166820  44.4034510  84.6925424  73.1755579  43.7057474
  83.2203576  73.0301334  44.0273112  95.9153298  81.3985252  43.3348770
  96.3489805  81.3060541  44.1831824  96.6284879  81.3742753  42.6968786
  84.8286349  82.6169251  40.5169503  85.6226947  82.1219571  40.3152078
  84.1178041  82.0887114  40.1537208  89.6481193  84.9987346  44.8681870
  89.7018216  85.5678283  45.6359586  88.7795975  85.1689231  44.5035907
  81.1369112  76.7612333  36.5929255  80.2066700  76.6996788  36.8099217
  81.2326584  76.2388285  35.7965897  81.0554661  73.2867145  39.1807497
  81.3161479  74.2012479  39.0716657  81.8771834  72.8191588  39.3304110
  82.5279587  74.7004903  46.3506322  83.2002640  74.4922265  45.7018970
  81.7009373  74.5026989  45.9111554  96.7768848  81.4408953  45.8681655
  96.9704738  82.3454763  46.1140930  96.6769466  80.9816372  46.7020240
  88.4305159  71.3266843  48.3671982  87.7833074  72.0256793  48.2736459
  89.2006174  71.7602987  48.7348231  91.8383957  81.5915696  51.4422536
  91.6869463  81.3626247  50.5252619  91.8288636  82.5486297  51.4553881
  88.6069293  79.1647608  46.4268802  89.5361353  79.3158768  46.2537769
  88.1860323  79.2531629  45.5717449  87.4057625  83.1898273  44.1967340
  87.2668711  82.8217057  45.0693278  86.6172221  83.7045912  44.0251298
  88.0005777  88.2907369  35.5392876  88.1757533  87.8195412  36.3538499
  87.3138565  88.9173135  35.7674137  88.9562840  82.5679875  41.5856178
  88.6212673  82.5280645  42.4813827  88.4566786  81.9024591  41.1126588
  82.9307084  77.9747506  47.1108759  82.7926882  77.2427744  47.7120298
  83.8412007  77.8856406  46.8292946  91.8922032  79.9135910  31.8593237
  91.2751202  79.1882738  31.7626290  91.4238520  80.6745270  31.5160311
  85.5589385  77.6867465  46.5992438  86.2689003  77.0460657  46.5579057
  85.5158693  77.9380360  47.5218619  93.5476163  84.6234818  49.5199018
  93.4888710  83.9394038  48.8529601  93.9495682  85.3653808  49.0679644
  84.2718319  74.6732683  48.4188078  83.7355676  74.2223421  49.0709674
  83.6835027  74.8078592  47.6758542  82.5666862  91.4396732  42.3132736
  82.8063460  92.0715256  42.9911755  81.7236059  91.0884772  42.5998096
  83.6820578  74.1321334  30.9814541  82.8050044  74.0110135  30.6176788
  84.1578331  73.3407412  30.7293430  93.5493571  82.5874402  47.7512997
  92.6620349  82.2500324  47.8739396  94.1192122  81.8557433  47.9881763
  75.2022718  78.9198494  41.0756049  75.8893758  78.6060224  40.4877064
  75.0470846  79.8239859  40.8023300  80.0057440  73.8088690  45.5041072
  79.9215629  73.2014360  44.7691482  79.1840146  74.2997709  45.5050569
  87.0794724  87.2475854  44.7174240  87.0064896  88.0530826  45.2293545
  86.6372117  87.4467820  43.8922262  86.8684504  86.4847625  38.2277062
  86.0852026  87.0269305  38.3215287  87.5677249  87.0021604  38.6271303
  90.1781154  72.2942254  40.8711267  90.6749853  71.5412216  40.5512338
  89.4068135  72.3306571  40.3054477  98.0310911  77.9982619  42.5129559
  98.0200787  78.8807335  42.1423492  97.1628291  77.6454170  42.3184096
  89.5393408  87.1462689  46.8732399  90.2521380  87.7810153  46.8008301
  89.0483436  87.2426555  46.0572401  91.2610934  81.0513941  38.4449691
  90.3267213  81.1715404  38.2754395  91.4387603  80.1486408  38.1809701
  86.7616123  74.4359637  40.5982952  86.3913910  73.8830677  41.2863858
  87.2575215  73.8317770  40.0457952  94.6483486  76.8931260  38.9799725
  95.1143938  77.7259252  38.9060028  95.0990986  76.4276242  39.6844983
  84.5905321  84.8957132  47.6937970  85.2914781  85.5293615  47.8467364
  84.1200436  85.2371864  46.9333609  92.7159717  83.2375082  35.9785877
  92.9919561  83.1231676  36.8879751  91.8464216  82.8392567  35.9398050
  92.6200149  69.2611847  43.0190626  91.7063228  69.4916074  43.1872833
  93.0493250  69.3450292  43.8704659  92.3906607  77.4501739  45.5190520
  91.7378057  77.6977647  44.8642973  92.7686987  76.6365878  45.1852998
  89.3513781  87.4861433  39.6218691  89.5336175  86.6683089  40.0846443
  90.1746767  87.7029125  39.1843581  89.6855946  86.4129618  36.8833739
  90.2143713  85.9022072  36.2703901  89.9484166  86.0972148  37.7479272
  88.4394180  78.1921550  52.0056557  87.7634817  78.0915680  52.6758933
  89.2621814  78.0360764  52.4692555  80.1873039  84.4293487  44.6269073
  80.7726476  83.6837175  44.7596977  79.9897878  84.7397444  45.5105737
  83.0411694  87.4644734  39.6431515  82.3722070  87.9490862  39.1595555
  82.9024564  87.7113955  40.5574894  74.7790694  76.9999087  43.3473516
  74.8174793  76.4662678  44.1410634  74.2730987  76.4734293  42.7284493
  87.1816963  89.4988478  46.2414173  87.7335271  89.6620099  47.0063259
  87.5223156  90.0892916  45.5694198  82.1581456  71.8463628  46.8436058
  82.2222783  72.7078459  46.4313456  82.0948576  71.2337629  46.1108417
  81.6333729  73.9186760  50.4909092  82.2605768  73.5363838  51.1046617
  80.7761648  73.7000962  50.8564785  92.0327837  84.3249735  52.0962828
  92.5767741  84.9379694  51.6017783  91.4514682  84.8829314  52.6129841
  78.4099271  75.7263189  36.4227447  78.7052713  74.8173868  36.3694501
  77.5087307  75.7050929  36.1008450  90.3185350  87.4470453  43.2277856
  90.1936490  86.6460193  42.7188801  90.9764441  87.9416647  42.7391825
  81.9393518  73.8019186  42.4054996  81.2180104  74.4155154  42.2662469
  82.7286774  74.3376951  42.3271642  92.3820259  85.2479474  44.8557406
  91.4350594  85.1284825  44.7835732  92.7303032  84.3601972  44.9383667
  84.7419832  71.1373612  48.6795648  85.2654234  71.3835909  49.4421957
  84.5232165  71.9693647  48.2598785  80.1387113  73.4077287  36.5466772
  79.8099819  72.5274666  36.3641878  80.4926484  73.3524956  37.4343162
  89.3866692  85.0432190  41.0561758  89.2391654  84.1148897  41.2369328
  90.2120185  85.0652280  40.5718833  83.2528936  73.6950257  36.9142250
  83.5925009  74.2236178  36.1920858  83.7001057  74.0330663  37.6900817
  92.9900814  85.8660748  42.1426631  93.9147361  85.6603610  42.0051082
  92.8216117  85.6177150  43.0515972  85.9472377  72.0787308  46.3645318
  85.6069197  71.2795121  46.7665998  85.2411383  72.3789018  45.7922151
  86.5988849  69.1636620  44.8172641  87.4214918  68.6897098  44.6951531
  86.8426912  69.9427104  45.3171327  85.2397083  72.1924878  35.1135543
  85.9605446  72.5706131  34.6099260  84.6162387  72.9113755  35.2170521
  89.3828206  72.8970027  36.0493875  89.5991821  73.7794665  35.7482703
  88.9022273  72.5056241  35.3199517  84.1227428  75.8555741  42.6264620
  83.9772008  76.1696044  43.5188901  83.6452631  76.4740641  42.0735518
  85.9823810  72.8458289  42.6745509  85.9685379  71.9499382  42.3377807
  86.6996239  72.8528952  43.3083795  87.8349941  73.2795629  44.7198637
  87.5767719  74.2012699  44.7182967  87.3034982  72.8826063  45.4099101
  92.7796130  86.3846416  37.4988722  92.9533007  85.8192838  36.7462575
  93.2725021  87.1847311  37.3168212  78.5973090  78.3961085  45.5652281
  78.0526558  79.1720893  45.6972555  79.4752440  78.7431890  45.4071402
  85.3860706  71.7272669  37.9433079  85.5076618  70.7989315  38.1423967
  85.0962749  71.7411355  37.0311395  88.2551897  69.4127579  41.0799799
  88.2773594  69.4766912  40.1251779  88.6719956  68.5732088  41.2740305
  98.6335521  79.1482839  39.1179022  99.0766667  78.3990164  38.7198145
  97.7562031  79.1392975  38.7352754  93.7671302  85.7013180  34.5985620
  94.4622207  86.3219873  34.8172935  94.1094453  84.8508532  34.8737998
  79.3839112  77.5230981  48.4582438  78.6420848  77.6713617  49.0447068
  79.0631856  77.7839247  47.5949187  95.6662726  83.1512886  36.1272951
  96.1914050  83.4900159  35.4022271  95.5785078  82.2159901  35.9436086
  87.3282774  87.0646960  48.2562828  87.6369901  86.8196106  49.1285527
  88.1258256  87.2693598  47.7681698  87.3503386  89.2184869  40.4868204
  86.9108377  88.7261248  41.1801061  88.1011503  88.6757837  40.2460280
  79.8295725  85.4096410  40.4892832  80.6553745  85.1100182  40.1091476
  79.4789777  84.6404032  40.9382621  84.7977258  84.7622878  42.5590506
  84.1757268  84.0993583  42.2592734  85.4682125  84.7884010  41.8764154
  78.0304330  83.3282736  41.4481766  77.1936239  82.9004911  41.2665767
  78.0027976  83.5215180  42.3852557  84.8701786  73.2404666  52.1523012
  84.9189941  74.1166789  51.7700782  85.4124300  72.6982059  51.5794655
  95.3556632  83.7845790  51.4324149  94.5652175  83.7669928  50.8928648
  95.1189986  84.3234083  52.1873186  95.4754507  80.6338256  48.7456878
  95.5252512  80.4688263  49.6872400  95.3668430  79.7665515  48.3554758
  84.3590765  83.3126802  36.0348967  84.5078886  83.9962266  35.3815639
  85.1657209  83.2931892  36.5498422  92.7658269  76.6169184  50.0616184
  93.6668132  76.4775649  49.7700182  92.8406244  76.7823639  51.0014362
  87.1001074  73.9936039  48.9069371  86.2304384  74.2869605  48.6351959
  87.3360555  74.5776484  49.6276634  96.9772704  83.0535197  48.9898899
  96.6857512  83.4165178  49.8262360  96.3644835  82.3402206  48.8112231
  98.1768386  80.6188077  41.5101469  99.0115277  81.0577881  41.6739030
  98.3127515  80.1426730  40.6909715  95.2259892  78.1767812  47.4578957
  95.7014013  78.3695458  46.6497809  94.3025457  78.2326998  47.2122341
  82.1143398  79.3391979  37.0410035  81.8689440  78.4354309  37.2390246
  82.2839313  79.3409130  36.0989513  89.8040108  70.2115656  46.4234791
  90.3222052  70.9476683  46.0981280  89.4495241  70.5179649  47.2581550
  81.3839046  75.0720337  34.5396197  80.6908291  75.1464692  33.8836233
  81.1390798  74.3080680  35.0617714  90.0552702  66.6315938  41.9435688
  90.3354456  65.9639127  42.5696114  90.8403309  66.8245034  41.4310351
  87.8586171  85.8074932  33.5060714  87.2860138  86.4265119  33.0531186
  88.4318965  86.3574294  34.0400636  93.9261561  75.0533572  45.6907263
  94.8778984  75.1531670  45.7119487  93.7565011  74.2611841  46.2005347
  91.9475940  72.1389155  45.8766664  91.3525872  72.4194168  45.1813152
  91.6625637  72.6283056  46.6483405  91.0783431  86.0912082  34.6369296
  92.0114104  86.0257644  34.8402172  90.9906644  86.9268349  34.1783829
  93.7071447  85.4077953  31.5973244  93.6285079  85.0737816  32.4909002
  94.5281114  85.8999720  31.5964716  96.4049639  78.2739692  44.8049562
  96.3725959  77.3355693  44.9909246  97.0150262  78.3523729  44.0715387
  88.2432969  77.1435745  30.8476766  89.1892074  77.0141953  30.9165184
  87.8647214  76.4050407  31.3246195  96.5544127  75.0650735  44.8507846
  96.0383176  74.2809192  44.6637774  97.4384076  74.7369452  45.0154365
  94.2154854  68.8091751  40.8103658  94.0179675  68.5006839  41.6946990
  94.8254560  69.5353390  40.9401588 102.2226188  79.3355699  43.9455599
 102.9529577  79.0740987  44.5063302 101.6133134  78.5984421  43.9857667
 100.3041486  77.4763561  44.5430050  99.5774649  77.3419526  43.9346542
  99.8888772  77.7840390  45.3486768  88.1271662  81.1953491  52.3077423
  89.0474671  81.3732090  52.5017470  88.0921245  80.2509536  52.1557123
  86.4275887  75.0685721  30.7831652  85.5207342  74.7718834  30.8594365
  86.7051868  74.7715539  29.9165938  77.3453827  76.3892085  41.2330698
  77.0256611  75.5357393  40.9405072  76.7987255  76.6040663  41.9888665
  81.1233734  79.1054526  44.9500205  81.3419744  80.0371633  44.9688238
  81.5359508  78.7462500  45.7355008  88.0437952  69.6122611  36.9375893
  87.2338681  69.2669696  37.3131139  88.7322369  69.3030155  37.5263504
  89.9728501  68.6900658  38.5600190  90.5259539  69.1096111  39.2190213
  90.2098587  67.7636406  38.6023146  85.1974671  71.9272656  30.9243631
  86.0593835  72.2527555  31.1839448  85.3825015  71.1404152  30.4116697
  77.2142087  80.0094996  43.2023820  76.5205558  79.5948949  42.6893774
  77.9615078  80.0515533  42.6057239  93.3507308  70.8001183  38.0678854
  92.7705977  71.4585987  37.6856906  93.0843240  69.9778527  37.6566271
  91.8010874  70.2006241  40.2700174  92.3010652  70.3122775  39.4614493
  92.4446482  69.8967293  40.9100983  85.8592870  78.1084870  53.1568015
  85.3759952  78.9085230  53.3631904  85.9453809  78.1192815  52.2035459
  79.1278829  79.9413250  41.0789834  79.1049518  80.0400937  40.1271718
  79.4379466  80.7878401  41.4007001  81.7866207  81.9989405  45.1936449
  82.7409461  81.9673347  45.1266380  81.5878731  81.5380029  46.0086675
  82.3765589  80.5690521  47.7607247  83.1958478  81.0634600  47.7842084
  82.6502397  79.6522489  47.7324814  92.1332186  72.9601273  37.1235202
  91.2458041  73.2450924  36.9055397  92.5486175  72.7995037  36.2762479
  95.4846722  72.9847794  40.8389541  96.2607112  73.4744247  41.1114158
  94.7594856  73.4105848  41.2961411  97.9219280  73.6975413  41.8963482
  98.5163771  73.4571149  41.1856790  97.9945864  72.9782544  42.5237018
  80.1416436  87.5409024  42.2106647  80.0070904  86.7809425  41.6444645
  79.7248498  88.2649924  41.7435436  91.2775399  82.7245948  31.2183222
  91.9811249  82.9295950  31.8340878  90.5538048  83.2922710  31.4832306
  92.1073209  78.4755809  37.3385492  92.0508411  78.9324361  36.4993125
  92.6601552  77.7146494  37.1608335  95.9178015  74.2645541  38.1635612
  95.6614950  73.8642177  38.9943819  95.2930883  74.9789335  38.0385751
 100.2290353  77.0041614  40.6706903  99.6689911  77.0734804  41.4438465
  99.6233857  76.8282599  39.9506399  83.2985562  88.4378341  42.4225089
  83.1817946  89.3823774  42.3203780  82.4778008  88.1351903  42.8110889
  93.1862097  83.1628477  33.2681682  94.0207700  82.7309676  33.0859157
  93.0246439  82.9910491  34.1958577  92.8407989  79.6660590  34.6338021
  92.7856793  79.5004862  33.6926466  92.2154044  80.3736623  34.7900211
  77.6300504  74.9028655  48.4599444  78.2759367  74.3927609  48.9486669
  77.4217655  75.6397336  49.0342869  90.1553896  81.9709502  53.9591584
  91.0245056  82.1450155  53.5978219  89.6760647  82.7903919  53.8367314
  86.1504114  69.1668699  34.2123340  86.1382784  70.1110539  34.3691611
  87.0427536  68.9838845  33.9182801  84.3240076  89.0906603  45.6381018
  85.2267323  89.1230214  45.9547513  84.0977446  88.1607054  45.6527354
  86.0793678  87.8437590  42.2991096  85.1289309  87.8439451  42.1855469
  86.3826164  87.0970324  41.7827131  89.9656234  65.7611476  38.4669277
  89.1988629  65.2069963  38.6125959  90.3766939  65.8333345  39.3283428
  81.9697995  72.0496272  52.5574458  82.8329456  71.6933077  52.7677782
  81.3963405  71.7110167  53.2449862 101.8146372  93.6798128  43.3636859
 102.4524782  93.5604876  42.6600199 101.6967215  94.6278972  43.4224811
  98.6236078  93.6325556  43.2998384  98.2854589  93.5166621  42.4118918
  99.4925846  93.2316721  43.2799390  94.4822894  95.4861033  39.2895275
  93.9187759  95.3950970  38.5211562  94.3675289  94.6660937  39.7697767
  99.1055861  94.7860408  49.2584589  99.0944502  94.3913206  48.3865093
  99.2676500  94.0526481  49.8518361  92.0287326  96.9812224  42.1279495
  92.8208617  96.6403049  41.7125794  92.2683976  97.0907199  43.0481648
 100.0622452  99.1532000  34.6009739  99.4110432  99.7386081  34.2143753
 100.8566815  99.6838195  34.6604777  93.9878079  96.2421138  34.9996874
  94.7608955  95.6950125  34.8609750  94.3403478  97.1065387  35.2111335
  95.8263122  97.5697520  48.2063773  95.5352988  98.4743151  48.0910439
  96.4620106  97.6114047  48.9207843  96.7519329  94.9474368  44.7965133
  97.3482901  94.7230391  44.0822096  96.8094300  94.2059114  45.3990581
  96.3244357  92.4013804  32.6315324  96.5769878  91.8795325  31.8698787
  95.3868916  92.2379949  32.7342007 101.3687640  91.4049582  40.4390067
 102.1550729  90.9869005  40.0880484 101.6326344  92.3095674  40.6071715
 101.5397717  96.8422432  35.1378724 100.9043550  96.9157059  35.8499628
 101.2095124  97.4316031  34.4597803 106.7696067  91.3424815  41.3423045
 107.5021239  90.7724032  41.5760875 106.0135423  90.9546416  41.7829551
  96.0440646  94.3041910  34.8339699  95.9276904  93.6286813  35.5020783
  96.1542906  93.8174284  34.0171852  98.3872187  93.7652057  38.5386388
  98.0230394  93.2382678  39.2499309  99.2439303  93.3750526  38.3652873
 104.2921488  85.0546389  45.8017654 103.9604812  85.9241800  45.5778869
 103.6967101  84.7382673  46.4811684  98.0277674  88.7941956  33.5347736
  98.1952076  89.6622193  33.9018207  97.8374843  88.9569238  32.6109026
 100.7853007  97.2558935  45.2013567 100.4853730  98.1583974  45.0929374
 100.4404067  96.9891119  46.0534720  94.2365489  93.7072732  41.2350271
  93.3115985  93.5748946  41.4427963  94.4849902  94.4866951  41.7320214
 104.1850151  89.7741476  42.8811004 103.2767028  89.7056884  42.5869765
 104.1337747  90.2513420  43.7092830  98.0066895  91.2499614  34.5194403
  97.8866520  91.6956665  35.3579884  97.3119483  91.5984932  33.9607941
  91.5974300  93.3506006  42.0694060  91.7266681  93.6040485  42.9833472
  90.9171751  93.9433714  41.7498715  98.2591017  91.1931121  50.8245901
  97.4824351  91.7525041  50.8148766  98.8981580  91.6787904  51.3460771
 106.0511797  87.9757914  44.6588878 105.4086178  88.2690447  44.0128673
 105.5466726  87.8610834  45.4642075 103.7051961  91.7221087  35.3474737
 104.6169817  91.9548474  35.1722435 103.1961608  92.3058131  34.7849816
  96.5137389  94.0016575  50.3863868  97.2552073  94.5401618  50.1098692
  95.8074374  94.6282863  50.5435420 101.9892729  96.1445715  48.9836030
 102.3976085  95.7028125  48.2390662 101.2669990  95.5698342  49.2370223
  98.3423799  91.0818322  46.3569587  99.1884994  91.5057735  46.5004236
  98.2822436  90.4251946  47.0508150 102.3121543  96.7046906  42.7388319
 101.6830406  96.8692620  42.0364387 101.9247205  97.1188515  43.5099283
 101.4923244  88.7422690  48.0150760 101.2484176  89.4964751  47.4785036
 101.7683175  89.1208038  48.8498007 103.4461707  95.2861302  46.6928026
 103.6578602  95.9293062  46.0162407 103.3991455  94.4523619  46.2249956
 101.0487936  87.8979123  43.5964598 100.1872415  88.1960377  43.8881336
 101.0750370  88.1149522  42.6645631  97.8649505  96.4421314  40.0038404
  98.3287851  96.7209017  39.2143026  97.6006303  95.5404758  39.8211495
  94.7573586  95.9892795  42.9418167  95.3274943  96.4180064  42.3035652
  95.3481698  95.7075380  43.6402353  96.8018391  92.5644466  36.8127969
  97.5042435  93.0165510  37.2801895  96.4699020  91.9228285  37.4407862
  95.2498753  91.1556223  51.1879178  94.6197413  91.8372504  51.4214575
  95.1434841  91.0439304  50.2432317  90.5443725  90.8228019  42.1145103
  89.7542779  91.0785547  41.6385213  91.0354973  91.6376357  42.2197143
 104.5607535  98.1633258  44.8650383 105.3824978  97.7613445  44.5833065
 104.5569938  98.0601492  45.8166499  92.4958471  91.1872598  39.0728579
  91.6989634  91.2991292  39.5912075  92.2684063  91.5259250  38.2069470
  98.3264138  97.7117301  47.0211094  98.3908571  98.1737708  47.8569266
  97.6175062  97.0814666  47.1493404  88.8281428  91.0758509  44.5460093
  89.0789467  91.9605519  44.8117669  89.3640977  90.8963111  43.7735185
  98.0412156  99.3785409  36.8890074  97.9057831 100.2236944  37.3174922
  98.5821968  99.5804686  36.1256008  94.5279495  85.4576989  53.5504429
  94.1346441  84.9043187  54.2252074  95.3445636  85.7687567  53.9410947
  91.4941553  96.8960847  37.4617999  92.0066074  97.6904097  37.6123564
  92.1464266  96.1987137  37.3951601  93.3036438 100.0126603  39.5440752
  93.4803066 100.9344568  39.3561736  94.0993271  99.6985022  39.9735132
  97.4447456  86.8734868  51.1424686  98.1857170  87.4742021  51.0629148
  97.6765379  86.1312505  50.5842729  92.5888794  92.0591235  49.4202916
  92.4742310  91.1576492  49.7210015  91.7333312  92.3054932  49.0687732
  99.6680632 100.0008975  51.0190416  99.2244486  99.2145354  50.7011321
 100.3297846 100.1888126  50.3534307  94.4267753 101.5304777  45.5451095
  94.9775179 101.4021840  44.7728089  93.5879229 101.8299666  45.1945988
  98.2234924  97.7955905  49.8895326  98.7563261  97.0344193  49.6594634
  97.6949006  97.5029556  50.6319480 101.3904619  82.9015971  45.4188968
 101.0468889  83.7917612  45.3428078 101.7583582  82.7117628  44.5558553
  89.4590470  95.2249501  38.2377570  90.2965692  95.6346509  38.0211278
  89.6368738  94.2848943  38.2077764 101.3554902  92.8924582  33.9261403
 100.8401526  93.6629186  34.1649790 101.0832211  92.2189718  34.5494464
  98.9402013  87.7374282  38.9846641  98.0843610  87.3481133  38.8052280
  99.3528965  87.8166243  38.1246427 100.4701160  85.2720626  43.3838201
  99.9665955  85.2350761  42.5706006 100.7631767  86.1813368  43.4434858
  96.7144046  85.3559355  42.3904383  97.5797042  85.1602164  42.0310272
  96.7821555  85.1269707  43.3173739 106.3289176  95.6456936  35.8614576
 105.5518619  95.3068096  35.4169738 107.0080657  95.6509559  35.1869541
 101.1441205  90.7651674  35.7521184 100.8391341  91.0797823  36.6031327
 102.0971647  90.8433094  35.7948517  99.5887637  96.9241897  37.4014138
  99.0608999  96.1894657  37.0887375  99.0875140  97.7016573  37.1554106
 104.5680483  95.1190918  42.5181184 103.9104158  95.8090179  42.6061313
 105.3720882  95.5087349  42.8615171  94.3206365  87.5861563  39.7620749
  94.8950117  87.3636745  39.0293942  94.9077347  87.6550258  40.5149351
 103.3785942  93.4735290  40.5685126 103.8917824  94.1065282  41.0706836
 104.0287166  92.8736486  40.2028486  94.6475952  89.6166024  33.7816635
  93.8113264  89.9540711  34.1025909  94.5080722  89.4815004  32.8443772
  96.6229032  84.4602812  38.4895819  95.9693445  84.1451829  37.8652434
  96.5809507  83.8378553  39.2155642  97.7340237  94.7422107  30.4049111
  96.8267299  94.5111361  30.6040260  98.2311269  93.9459727  30.5923093
  99.8566773  90.9484746  42.8143466  98.9389334  91.1699693  42.6565155
 100.2726916  91.0231056  41.9555174 100.6401821  92.3476161  37.9446147
 101.3873640  92.8597559  37.6353269 100.9093410  92.0260214  38.8050540
  98.9128471  94.8434702  34.9273101  98.0039690  94.5593735  35.0245571
  98.9423555  95.2633781  34.0676408 104.1447738  98.4541292  38.6964269
 103.6910065  97.6132202  38.7529459 103.5141705  99.0902690  39.0339049
 103.0880658  89.3833278  39.9264936 102.3503415  88.8710664  40.2575179
 103.3407431  88.9433659  39.1148213 103.1892285  82.1609530  40.5206705
 103.4951162  81.3006893  40.2332620 103.9144890  82.7527150  40.3205699
  89.4816641  92.5640216  38.9088303  89.2841041  91.9709577  38.1839370
  88.9263305  92.2592427  39.6264242  97.4613365  92.4563323  41.0282896
  97.5161975  91.5037159  40.9525373  96.6504567  92.6122762  41.5124195
  98.6104559  96.3843446  32.2661180  98.1723989  95.6679305  31.8066817
  99.3514999  96.6119561  31.7046271  95.4005725  91.0740383  38.7873275
  94.5873590  91.3734553  39.1938467  95.8964719  90.6796071  39.5047758
  97.5514303 101.0698139  40.7207540  97.5090481 101.2958986  39.7916072
  98.4677001 100.8361514  40.8693341 100.9979936  91.5382207  47.6188169
 101.3529324  91.7653680  48.4782635 101.6452068  91.8700584  46.9965424
 106.7277673  94.6600643  38.3237498 106.5895572  94.8502239  37.3958687
 106.3713892  95.4220026  38.7805549  94.8919800  88.6458738  44.4034510
  95.5319179  88.5047497  43.7057474  94.0597330  88.3593251  44.0273112
  95.6680103  97.9461168  40.5169503  96.4620702  97.4511489  40.3152078
  94.9571796  97.4179032  40.1537208 100.4874948 100.3279264  44.8681870
 100.5411970 100.8970200  45.6359586  99.6189729 100.4981149  44.5035907
  91.9762867  92.0904250  36.5929255  91.0460455  92.0288706  36.8099217
  92.0720339  91.5680203  35.7965897  91.8948416  88.6159063  39.1807497
  92.1555233  89.5304396  39.0716657  92.7165588  88.1483506  39.3304110
  93.3673341  90.0296820  46.3506322  94.0396395  89.8214182  45.7018970
  92.5403128  89.8318906  45.9111554  99.2698913  86.6558761  48.3671982
  98.6226828  87.3548711  48.2736459 100.0399929  87.0894905  48.7348231
 102.6777711  96.9207613  51.4422536 102.5263218  96.6918165  50.5252619
 102.6682391  97.8778215  51.4553881  99.4463048  94.4939526  46.4268802
 100.3755108  94.6450686  46.2537769  99.0254078  94.5823547  45.5717449
  98.2451379  98.5190190  44.1967340  98.1062465  98.1508975  45.0693278
  97.4565976  99.0337830  44.0251298  99.7956595  97.8971793  41.5856178
  99.4606427  97.8572563  42.4813827  99.2960540  97.2316509  41.1126588
  93.7700839  93.3039423  47.1108759  93.6320636  92.5719662  47.7120298
  94.6805762  93.2148323  46.8292946 102.7315786  95.2427828  31.8593237
 102.1144957  94.5174656  31.7626290 102.2632275  96.0037188  31.5160311
  96.3983139  93.0159383  46.5992438  97.1082758  92.3752575  46.5579057
  96.3552447  93.2672277  47.5218619  95.1112073  90.0024600  48.4188078
  94.5749430  89.5515339  49.0709674  94.5228782  90.1370509  47.6758542
  94.5214332  89.4613252  30.9814541  93.6443798  89.3402053  30.6176788
  94.9972085  88.6699330  30.7293430 104.3887325  97.9166320  47.7512997
 103.5014104  97.5792242  47.8739396 104.9585876  97.1849351  47.9881763
  86.0416472  94.2490412  41.0756049  86.7287512  93.9352142  40.4877064
  85.8864601  95.1531776  40.8023300  90.8451194  89.1380608  45.5041072
  90.7609383  88.5306278  44.7691482  90.0233901  89.6289626  45.5050569
  97.7078258 101.8139542  38.2277062  96.9245780 102.3561222  38.3215287
  98.4071003 102.3313522  38.6271303 101.0174908  87.6234172  40.8711267
 101.5143608  86.8704134  40.5512338 100.2461890  87.6598488  40.3054477
 108.8704666  93.3274537  42.5129559 108.8594542  94.2099253  42.1423492
 108.0022045  92.9746088  42.3184096 102.1004689  96.3805859  38.4449691
 101.1660968  96.5007321  38.2754395 102.2781357  95.4778326  38.1809701
  97.6009877  89.7651555  40.5982952  97.2307665  89.2122595  41.2863858
  98.0968969  89.1609688  40.0457952 105.4877240  92.2223178  38.9799725
 105.9537693  93.0551170  38.9060028 105.9384741  91.7568160  39.6844983
  95.4299076 100.2249050  47.6937970  96.1308535 100.8585533  47.8467364
  94.9594191 100.5663781  46.9333609 103.5553471  98.5666999  35.9785877
 103.8313315  98.4523594  36.8879751 102.6857970  98.1684484  35.9398050
 103.4593903  84.5903765  43.0190626 102.5456983  84.8207992  43.1872833
 103.8887005  84.6742209  43.8704659 103.2300362  92.7793657  45.5190520
 102.5771812  93.0269565  44.8642973 103.6080741  91.9657795  45.1852998
  99.2787935  93.5213468  52.0056557  98.6028572  93.4207597  52.6758933
 100.1015568  93.3652682  52.4692555  91.0266794  99.7585405  44.6269073
  91.6120230  99.0129093  44.7596977  90.8291632 100.0689361  45.5105737
  93.8805449 102.7936652  39.6431515  93.2115824 103.2782780  39.1595555
  93.7418319 103.0405873  40.5574894  85.6184448  92.3291005  43.3473516
  85.6568548  91.7954596  44.1410634  85.1124741  91.8026210  42.7284493
  92.9975211  87.1755545  46.8436058  93.0616537  88.0370376  46.4313456
  92.9342331  86.5629547  46.1108417  92.4727483  89.2478678  50.4909092
  93.0999522  88.8655755  51.1046617  91.6155402  89.0292880  50.8564785
  89.2493026  91.0555107  36.4227447  89.5446467  90.1465785  36.3694501
  88.3481062  91.0342847  36.1008450  92.7787273  89.1311104  42.4054996
  92.0573859  89.7447071  42.2662469  93.5680529  89.6668868  42.3271642
  95.5813586  86.4665530  48.6795648  96.1047988  86.7127827  49.4421957
  95.3625920  87.2985565  48.2598785  90.9780868  88.7369205  36.5466772
  90.6493574  87.8566584  36.3641878  91.3320238  88.6816873  37.4343162
 100.2260446 100.3724107  41.0561758 100.0785409  99.4440815  41.2369328
 101.0513940 100.3944198  40.5718833  94.0922691  89.0242175  36.9142250
  94.4318763  89.5528096  36.1920858  94.5394811  89.3622581  37.6900817
  96.7866132  87.4079225  46.3645318  96.4462952  86.6087038  46.7665998
  96.0805138  87.7080936  45.7922151  97.4382603  84.4928538  44.8172641
  98.2608673  84.0189016  44.6951531  97.6820667  85.2719021  45.3171327
  96.0790838  87.5216796  35.1135543  96.7999200  87.8998049  34.6099260
  95.4556142  88.2405673  35.2170521 100.2221961  88.2261945  36.0493875
 100.4385575  89.1086583  35.7482703  99.7416028  87.8348158  35.3199517
  94.9621182  91.1847658  42.6264620  94.8165763  91.4987961  43.5188901
  94.4846386  91.8032559  42.0735518  96.8217565  88.1750206  42.6745509
  96.8079134  87.2791300  42.3377807  97.5389993  88.1820870  43.3083795
  98.6743696  88.6087547  44.7198637  98.4161474  89.5304617  44.7182967
  98.1428736  88.2117981  45.4099101  89.4366844  93.7253003  45.5652281
  88.8920312  94.5012811  45.6972555  90.3146194  94.0723807  45.4071402
  96.2254461  87.0564587  37.9433079  96.3470372  86.1281233  38.1423967
  95.9356503  87.0703273  37.0311395  99.0945651  84.7419497  41.0799799
  99.1167348  84.8058830  40.1251779  99.5113710  83.9024006  41.2740305
 109.4729276  94.4774757  39.1179022 109.9160422  93.7282082  38.7198145
 108.5955786  94.4684893  38.7352754  90.2232866  92.8522899  48.4582438
  89.4814602  93.0005534  49.0447068  89.9025610  93.1131165  47.5949187
  90.6689480 100.7388328  40.4892832  91.4947500 100.4392100  40.1091476
  90.3183532  99.9695950  40.9382621  95.6371013 100.0914796  42.5590506
  95.0151022  99.4285501  42.2592734  96.3075880 100.1175928  41.8764154
  88.8698085  98.6574654  41.4481766  88.0329993  98.2296829  41.2665767
  88.8421730  98.8507097  42.3852557  95.7095540  88.5696584  52.1523012
  95.7583696  89.4458707  51.7700782  96.2518055  88.0273977  51.5794655
 106.3148261  95.9630174  48.7456878 106.3646266  95.7980181  49.6872400
 106.2062185  95.0957433  48.3554758  95.1984520  98.6418719  36.0348967
  95.3472640  99.3254184  35.3815639  96.0050963  98.6223809  36.5498422
 103.6052024  91.9461102  50.0616184 104.5061886  91.8067566  49.7700182
 103.6799998  92.1115556  51.0014362  97.9394829  89.3227956  48.9069371
  97.0698138  89.6161522  48.6351959  98.1754309  89.9068401  49.6276634
 106.0653646  93.5059730  47.4578957 106.5407768  93.6987376  46.6497809
 105.1419212  93.5618916  47.2122341  92.9537153  94.6683897  37.0410035
  92.7083195  93.7646227  37.2390246  93.1233067  94.6701047  36.0989513
 100.6433863  85.5407573  46.4234791 101.1615807  86.2768600  46.0981280
 100.2888996  85.8471567  47.2581550  92.2232800  90.4012254  34.5396197
  91.5302045  90.4756609  33.8836233  91.9784552  89.6372598  35.0617714
 100.8946457  81.9607856  41.9435688 101.1748211  81.2931045  42.5696114
 101.6797064  82.1536951  41.4310351  98.6979925 101.1366850  33.5060714
  98.1253892 101.7557037  33.0531186  99.2712719 101.6866211  34.0400636
 104.7655315  90.3825490  45.6907263 105.7172738  90.4823587  45.7119487
 104.5958766  89.5903758  46.2005347 102.7869695  87.4681073  45.8766664
 102.1919627  87.7486086  45.1813152 102.5019391  87.9574974  46.6483405
 107.2443393  93.6031609  44.8049562 107.2119713  92.6647610  44.9909246
 107.8544017  93.6815646  44.0715387  99.0826724  92.4727662  30.8476766
 100.0285829  92.3433871  30.9165184  98.7040969  91.7342324  31.3246195
 107.3937882  90.3942653  44.8507846 106.8776930  89.6101110  44.6637774
 108.2777830  90.0661370  45.0154365 105.0548608  84.1383668  40.8103658
 104.8573430  83.8298757  41.6946990 105.6648314  84.8645307  40.9401588
  98.9665416  96.5245409  52.3077423  99.8868426  96.7024008  52.5017470
  98.9314999  95.5801454  52.1557123  97.2669641  90.3977639  30.7831652
  96.3601096  90.1010752  30.8594365  97.5445622  90.1007457  29.9165938
  88.1847581  91.7184002  41.2330698  87.8650366  90.8649310  40.9405072
  87.6381010  91.9332580  41.9888665  91.9627489  94.4346443  44.9500205
  92.1813499  95.3663551  44.9688238  92.3753263  94.0754418  45.7355008
  98.8831707  84.9414529  36.9375893  98.0732435  84.5961614  37.3131139
  99.5716124  84.6322072  37.5263504 100.8122255  84.0192575  38.5600190
 101.3653294  84.4388029  39.2190213 101.0492341  83.0928323  38.6023146
  96.8355354  90.0079649  54.3402953  96.7352081  90.9574006  54.2715045
  96.6176896  89.6797888  53.4679024  96.0368426  87.2564574  30.9243631
  96.8987590  87.5819472  31.1839448  96.2218770  86.4696070  30.4116697
  88.0535841  95.3386914  43.2023820  87.3599313  94.9240867  42.6893774
  88.8008832  95.3807450  42.6057239 104.1901062  86.1293101  38.0678854
 103.6099731  86.7877905  37.6856906 103.9236995  85.3070445  37.6566271
 102.6404629  85.5298158  40.2700174 103.1404407  85.6414693  39.4614493
 103.2840236  85.2259211  40.9100983  96.6986624  93.4376788  53.1568015
  96.2153706  94.2377148  53.3631904  96.7847563  93.4484733  52.2035459
  89.9672584  95.2705168  41.0789834  89.9443272  95.3692855  40.1271718
  90.2773220  96.1170318  41.4007001  92.6259962  97.3281323  45.1936449
  93.5803215  97.2965265  45.1266380  92.4272485  96.8671946  46.0086675
  93.2159344  95.8982439  47.7607247  94.0352233  96.3926517  47.7842084
  93.4896152  94.9814407  47.7324814 102.9725940  88.2893191  37.1235202
 102.0851795  88.5742842  36.9055397 103.3879929  88.1286954  36.2762479
 106.3240476  88.3139712  40.8389541 107.1000866  88.8036164  41.1114158
 105.5988610  88.7397766  41.2961411 108.7613035  89.0267331  41.8963482
 109.3557526  88.7863067  41.1856790 108.8339619  88.3074462  42.5237018
  90.9810191 102.8700942  42.2106647  90.8464659 102.1101343  41.6444645
  90.5642253 103.5941842  41.7435436 102.9466964  93.8047727  37.3385492
 102.8902165  94.2616278  36.4993125 103.4995306  93.0438411  37.1608335
 106.7571770  89.5937459  38.1635612 106.5008704  89.1934094  38.9943819
 106.1324638  90.3081253  38.0385751  94.1379316 103.7670259  42.4225089
  94.0211701 104.7115692  42.3203780  93.3171763 103.4643821  42.8110889
 104.0255851  98.4920395  33.2681682 104.8601455  98.0601593  33.0859157
 103.8640194  98.3202408  34.1958577 103.6801743  94.9952508  34.6338021
 103.6250547  94.8296780  33.6926466 103.0547798  95.7028541  34.7900211
  88.4694258  90.2320572  48.4599444  89.1153122  89.7219526  48.9486669
  88.2611409  90.9689254  49.0342869 100.9947650  97.3001420  53.9591584
 101.8638810  97.4742072  53.5978219 100.5154402  98.1195837  53.8367314
  96.9897869  84.4960617  34.2123340  96.9776539  85.4402457  34.3691611
  97.8821291  84.3130763  33.9182801  95.1633831 104.4198521  45.6381018
  96.0661077 104.4522131  45.9547513  94.9371201 103.4898972  45.6527354
  96.9187433 103.1729508  42.2991096  95.9683064 103.1731369  42.1855469
  97.2219919 102.4262242  41.7827131 100.8049988  81.0903394  38.4669277
 100.0382384  80.5361880  38.6125959 101.2160693  81.1625263  39.3283428
  92.8091749  87.3788190  52.5574458  93.6723211  87.0224994  52.7677782
  92.2357160  87.0402084  53.2449862  44.4267307  -6.0071909  30.0243690
  44.0885818  -6.1230845  29.1364225  45.2957075  -6.4080744  30.0044696
  44.9087090  -4.8537058  35.9829896  44.8975730  -5.2484259  35.1110399
  45.0707729  -5.5870985  36.5763667  41.6294351  -2.0699946  34.9309080
  41.3384217  -1.1654315  34.8155746  42.2651335  -2.0283418  35.6453149
  42.5550558  -4.6923097  31.5210439  43.1514130  -4.9167075  30.8067402
  42.6125529  -5.4338352  32.1235887  46.5884236  -2.3838530  31.9258873
  46.2884959  -1.4813492  31.8174681  46.2435295  -2.6506347  32.7780026
  41.5705016   4.3805790  24.8929841  41.4929045   5.3313615  24.9718322
  40.9666659   4.0351662  25.5504767  42.3168618  -5.6380891  37.1109175
  43.0583302  -5.0995847  36.8343999  41.6105603  -5.0114603  37.2680727
  47.7923957  -3.4951751  35.7081336  48.2007313  -3.9369340  34.9635969
  47.0701219  -4.0699123  35.9615529  48.1152772  -2.9350560  29.4633625
  47.4861635  -2.7704846  28.7609693  47.7278434  -2.5208951  30.2344589
  51.9942004  -1.9996122  26.8177989  51.3093042  -1.6197221  26.2675022
  52.0785853  -1.3900796  27.5509937  40.5604815  -3.6504671  29.6663474
  41.1306172  -3.2217402  29.0280958  41.1512927  -3.9322086  30.3647659
  50.3638764  -1.4764208  31.5895690  51.1856207  -1.8784021  31.3078372
  50.3601166  -1.5795974  32.5411806  44.1295367  -1.9280165  33.7456401
  44.1939800  -1.4659757  34.5814572  43.4206291  -2.5582800  33.8738710
  38.3920023  -7.5806231  36.1448222  38.2773538  -8.4820974  36.4455321
  37.5364541  -7.3342534  35.7933039  45.4711861   0.3611509  37.7435723
  45.0275715  -0.4252112  37.4256627  46.1329075   0.5490660  37.0779614
  40.2298982   1.8907311  32.2696401  40.7806407   1.7624374  31.4973395
  39.3910458   2.1902200  31.9191294  47.5693099   0.6414309  35.7717124
  47.5511574   1.4623190  35.2797393  48.4913019   0.5168385  35.9967265
  44.0266153  -1.8441561  36.6140633  44.5594490  -2.6053273  36.3839941
  43.4980234  -2.1367909  37.3564787  50.3711712  -4.5206548  29.2426491
  49.7135386  -3.8307287  29.3306619  51.1752111  -4.1310116  29.5860477
  49.9478967  -1.1856174  25.4209575  49.4941294  -2.0265264  25.4774766
  49.3172934  -0.5494776  25.7584355  48.3911906   0.6520323  26.3559393
  48.6834881   1.2125380  25.6371759  48.9010527   0.9448884  27.1112552
  43.3545531   1.4300674  27.4452847  43.3121710   1.6561520  26.5161379
  44.2708230   1.1964048  27.5938648  52.5578282  -2.9120296  30.0594076
  52.9914788  -3.0045007  30.9077130  53.2709862  -2.9362795  29.4214092
  46.2906177   0.6881798  31.5927177  46.3443199   1.2572735  32.3604893
  45.4220958   0.8583683  31.2281214  53.4193831  -2.8696595  32.5926962
  53.6129721  -1.9650785  32.8386237  53.3194449  -3.3289176  33.4265547
  48.4808940  -2.7189852  38.1667842  48.3294446  -2.9479301  37.2497926
  48.4713619  -1.7619251  38.1799187  45.2494276  -5.1457940  33.1514109
  46.1786336  -4.9946780  32.9783076  44.8285306  -5.0573919  32.2962755
  44.0482608  -1.1207275  30.9212646  43.9093694  -1.4888491  31.7938585
  43.2597204  -0.6059636  30.7496604  44.6430760   3.9801821  22.2638183
  44.8182516   3.5089864  23.0783806  43.9563548   4.6067587  22.4919444
  45.5987823  -1.7425673  28.3101484  45.2637656  -1.7824903  29.2059134
  45.0991769  -2.4080957  27.8371894  39.5732067  -6.3358043  33.8354065
  39.4351865  -7.0677804  34.4365604  40.4836991  -6.4249142  33.5538253
  42.2014368  -6.6238083  33.3237745  42.9113987  -7.2644891  33.2824363
  42.1583676  -6.3725188  34.2463926  50.1901147   0.3129270  36.2444324
  50.1313693  -0.3711510  35.5774907  50.5920665   1.0548260  35.7924950
  39.2091845   7.1291184  29.0378043  39.4488444   7.7609708  29.7157062
  38.3661042   6.7779224  29.3243402  50.1918554  -1.7231146  34.4758304
  49.3045333  -2.0605224  34.5984703  50.7617105  -2.4548115  34.7127069
  43.7219707   2.9370306  31.4419547  43.6489879   3.7425278  31.9538852
  43.2797100   3.1362272  30.6167568  43.5109487   2.1742076  24.9522369
  42.7277009   2.7163757  25.0460593  44.2102232   2.6916056  25.3516610
  46.1818391   2.8357140  33.5977706  46.8946363   3.4704605  33.5253607
  45.6908419   2.9321006  32.7817708  41.2330304   0.5851584  34.4183277
  41.9339764   1.2188067  34.5712671  40.7625419   0.9266315  33.6578916
  45.9938764   3.1755884  26.3463997  46.1761159   2.3577540  26.8091750
  46.8171750   3.3923577  25.9088887  46.3280930   2.1024070  23.6079046
  46.8568696   1.5916524  22.9949208  46.5909149   1.7866600  24.4724579
  36.8298022   0.1187939  31.3514379  37.4151459  -0.6268373  31.4842283
  36.6322861   0.4291896  32.2351043  39.6836678   3.1539186  26.3676822
  39.0147053   3.6385314  25.8840862  39.5449547   3.4008407  27.2820200
  43.8241946   5.1882930  32.9659480  44.3760254   5.3514551  33.7308565
  44.1648140   5.7787368  32.2939505  48.6752821   0.0144187  38.8208134
  49.2192725   0.6274146  38.3263089  48.0939665   0.5723766  39.3375147
  46.9610334   3.1364905  29.9523162  46.8361473   2.3354645  29.4434108
  47.6189425   3.6311099  29.4637132  49.0245242   0.9373925  31.5802712
  48.0775577   0.8179277  31.5081039  49.3728015   0.0496423  31.6628974
  46.0291675   0.7326642  27.7807064  45.8816638  -0.1956651  27.9614635
  46.8545169   0.7546732  27.2964140  49.6325797   1.5555200  28.8671937
  50.5572345   1.3498062  28.7296388  49.4641100   1.3071602  29.7761279
  49.4221113   2.0740868  24.2234029  49.5957991   1.5087290  23.4707881
  49.9150004   2.8741763  24.0413519  35.2398073  -5.9144463  32.2897587
  34.6951541  -5.1384655  32.4217862  36.1177423  -5.5673659  32.1316709
  50.4096286   1.3907632  21.3230927  51.1047190   2.0114325  21.5418242
  50.7519436   0.5402983  21.5983305  36.0264095  -6.7874567  35.1827744
  35.2845831  -6.6391931  35.7692375  35.7056839  -6.5266301  34.3194494
  52.3087709  -1.1592662  22.8518258  52.8339033  -0.8205389  22.1267578
  52.2210061  -2.0945647  22.6681392  43.9707758   2.7541411  34.9808134
  44.2794884   2.5090558  35.8530834  44.7683240   2.9588050  34.4927005
  43.9928370   4.9079321  27.2113511  43.5533360   4.4155700  27.9046368
  44.7436487   4.3652289  26.9705586  41.4402242   0.4517330  29.2835813
  40.8182251  -0.2111965  28.9838040  42.1107109   0.4778462  28.6009460
  51.9981615  -0.5259759  38.1569456  51.2077159  -0.5435620  37.6173955
  51.7614970   0.0128535  38.9118492  53.6197687  -1.2570351  35.7144206
  53.3282495  -0.8940370  36.5507667  53.0069818  -1.9703342  35.5357538
  44.7696645  -3.1152057  39.0322730  45.6899655  -2.9373458  39.2262777
  44.7346228  -4.0596012  38.8802429  37.7658718  -5.2051023  31.6745511
  37.9844728  -4.2733915  31.6933545  38.1784492  -5.5643048  32.4600315
  42.5017853  -6.2020678  39.8813322  42.0184935  -5.4020318  40.0877211
  42.5878792  -6.1912733  38.9280766  38.4291191  -2.3116143  31.9181756
  39.3834444  -2.3432201  31.8511687  38.2303714  -2.7725519  32.7331981
  39.0190573  -3.7415027  34.4852553  39.8383462  -3.2470949  34.5087390
  39.2927380  -4.6583059  34.4570121  36.7841419   3.2303476  28.9351953
  36.6495887   2.4703877  28.3689951  36.3673482   3.9544376  28.4680742
  39.9410545   4.1272793  29.1470396  39.8242929   5.0718226  29.0449086
  39.1202992   3.8246355  29.5356195  46.7978879  -2.3396046  40.6836891
  47.6670039  -2.1655394  40.3223526  46.3185631  -1.5201629  40.5612620
  40.9665059   4.7801055  32.3626324  41.8692306   4.8124665  32.6792819
  40.7402429   3.8501506  32.3772660  42.7218661   3.5332042  29.0236403
  41.7714292   3.5333903  28.9100775  43.0251148   2.7864776  28.5072438
  58.4571355   9.3692580  30.0882166  59.0949765   9.2499327  29.3845506
  58.3392198  10.3173424  30.1470118  55.2661061   9.3220008  30.0243690
  54.9279573   9.2061073  29.1364225  56.1350829   8.9211173  30.0044696
  51.1247877  11.1755485  26.0140581  50.5612742  11.0845422  25.2456869
  51.0100272  10.3555389  26.4943074  55.7480844  10.4754860  35.9829896
  55.7369485  10.0807658  35.1110399  55.9101484   9.7420933  36.5763667
  48.6712309  12.6706676  28.8524802  49.4633601  12.3297501  28.4371101
  48.9108959  12.7801651  29.7726955  56.7047436  14.8426452  21.3255046
  56.0535415  15.4280533  20.9389060  57.4991798  15.3732647  21.3850084
  50.6303063  11.9315589  21.7242180  51.4033939  11.3844577  21.5855056
  50.9828462  12.7959839  21.9356642  52.4688105  13.2591972  34.9309080
  52.1777971  14.1637603  34.8155746  53.1045090  13.3008499  35.6453149
  53.3944312  10.6368820  31.5210439  53.9907884  10.4124843  30.8067402
  53.4519284   9.8953566  32.1235887  52.9669341   8.0908256  19.3560630
  53.2194861   7.5689777  18.5944093  52.0293900   7.9274401  19.4587314
  58.0112623   7.0944034  27.1635374  58.7975713   6.6763457  26.8125791
  58.2751328   7.9990126  27.3317022  58.1822701  12.5316884  21.8624030
  57.5468534  12.6051511  22.5744935  57.8520107  13.1210483  21.1843110
  63.4121051   7.0319267  28.0668352  64.1446222   6.4618484  28.3006182
  62.6560406   6.6440868  28.5074858  52.6865629   9.9936362  21.5585005
  52.5701887   9.3181265  22.2266090  52.7967889   9.5068735  20.7417158
  55.0297170   9.4546509  25.2631695  54.6655378   8.9277130  25.9744616
  55.8864286   9.0644978  25.0898180  60.9346471   0.7440841  32.5262961
  60.6029796   1.6136252  32.3024176  60.3392084   0.4277125  33.2056991
  54.6702657   4.4836408  20.2593043  54.8377060   5.3516645  20.6263514
  54.4799826   4.6463690  19.3354332  57.4277990  12.9453387  31.9258873
  57.1278714  13.8478426  31.8174681  57.0829050  12.6785570  32.7780026
  50.8790472   9.3967184  27.9595578  49.9540968   9.2643398  28.1673270
  51.1274885  10.1761403  28.4565520  60.8275134   5.4635927  29.6056311
  59.9192012   5.3951336  29.3115072  60.7762730   5.9407872  30.4338136
  54.6491878   6.9394066  21.2439710  54.5291503   7.3851117  22.0825190
  53.9544467   7.2879384  20.6853248  48.2399283   9.0400458  28.7939367
  48.3691664   9.2934937  29.7078779  47.5596734   9.6328166  28.4744022
  52.4098770  19.7097708  24.8929841  52.3322800  20.6605533  24.9718322
  51.8060414  19.3643580  25.5504767  54.9016000   6.8825573  37.5491208
  54.1249334   7.4419493  37.5394073  55.5406563   7.3682356  38.0706078
  62.6936781   3.6652366  31.3834185  62.0511161   3.9584899  30.7373979
  62.1891709   3.5505286  32.1887381  60.3476944   7.4115539  22.0720044
  61.2594800   7.6442926  21.8967741  59.8386591   7.9952583  21.5095123
  53.1562372   9.6911026  37.1109175  53.8977057  10.2296070  36.8343999
  52.4499358  10.3177315  37.2680727  58.6317712  11.8340167  35.7081336
  59.0401068  11.3922577  34.9635969  57.9094973  11.2592794  35.9615529
  54.9848782   6.7712774  33.0814893  55.8309977   7.1952187  33.2249542
  54.9247420   6.1146398  33.7753457  58.9546527  12.3941357  29.4633625
  58.3255389  12.5587072  28.7609693  58.5672189  12.8082967  30.2344589
  62.8335758  13.3295795  26.8177989  62.1486797  13.7094697  26.2675022
  62.9179608  13.9391122  27.5509937  58.1348227   4.4317142  34.7396067
  57.8909159   5.1859203  34.2030343  58.4108158   4.8102490  35.5743314
  60.0886690  10.9755754  33.4173333  60.3003585  11.6187514  32.7407714
  60.0416438  10.1418071  32.9495263  57.6912919   3.5873575  30.3209905
  56.8297398   3.8854829  30.6126642  57.7175354   3.8043974  29.3890937
  54.5074488  12.1315766  26.7283710  54.9712834  12.4103469  25.9388333
  54.2431287  11.2299210  26.5456801  51.3998570  11.6787247  29.6663474
  51.9699927  12.1074515  29.0280958  51.9906681  11.3969832  30.3647659
  53.4443375   8.2538918  23.5373276  54.1467418   8.7059962  24.0047202
  53.1124003   7.6122737  24.1653169  51.8923736   6.8450675  37.9124485
  51.2622397   7.5266955  38.1459882  51.7859824   6.7333756  36.9677623
  47.1868708   6.5122471  28.8390409  46.3967762   6.7679999  28.3630520
  47.6779956   7.3270808  28.9442450  61.2032518  13.8527710  31.5895690
  62.0249962  13.4507897  31.3078372  61.1994921  13.7495944  32.5411806
  49.1383454   6.8767050  25.7973886  48.3414617   6.9885744  26.3157382
  48.9109046   7.2153702  24.9314776  54.9689121  13.4011753  33.7456401
  55.0333554  13.8632160  34.5814572  54.2600045  12.7709118  33.8738710
  45.4706411   6.7652961  31.2705400  45.7214450   7.6499971  31.5362976
  46.0065960   6.5857563  30.4980492  69.2938511  10.1966458  27.9380661
  68.5402219   9.6273856  27.7824666  69.4286052  10.1629123  28.8851296
  54.6837139  15.0679861  23.6135381  54.5482814  15.9131396  24.0420229
  55.2246952  15.2699138  22.8501315  51.1704479   1.1471440  40.2749736
  50.7771424   0.5937639  40.9497380  51.9870619   1.4582019  40.6656254
  48.1366537  12.5855299  24.1863306  48.6491057  13.3798549  24.3368871
  48.7889249  11.8881589  24.1196907  49.9461421  15.7021055  26.2686059
  50.1228050  16.6239020  26.0807043  50.7418255  15.3879474  26.6980439
  54.0872440   2.5629320  37.8669993  54.8282153   3.1636473  37.7874455
  54.3190363   1.8206957  37.3088035  49.2313778   7.7485687  36.1448222
  49.1167293   6.8470944  36.4455321  48.3758296   7.9949384  35.7933039
  56.3105616  15.6903427  37.7435723  55.8669470  14.9039806  37.4256627
  56.9722829  15.8782578  37.0779614  51.0692737  17.2199229  32.2696401
  51.6200162  17.0916292  31.4973395  50.2304213  17.5194118  31.9191294
  58.4086854  15.9706227  35.7717124  58.3905329  16.7915108  35.2797393
  59.3306774  15.8460302  35.9967265  54.8659908  13.4850356  36.6140633
  55.3988245  12.7238645  36.3839941  54.3373989  13.1924008  37.3564787
  58.0329603  -1.4089578  32.1434274  57.6893872  -0.5187936  32.0673385
  58.4008565  -1.5987920  31.2803859  46.1015453  10.9143953  24.9622876
  46.9390675  11.3240961  24.7456584  46.2793721   9.9743395  24.9323070
  57.9979885   8.5819034  20.6506709  57.4826509   9.3523638  20.8895097
  57.7257194   7.9084170  21.2739771  55.5826996   3.4268734  25.7091948
  54.7268593   3.0375585  25.5297586  55.9953948   3.5060695  24.8491733
  57.1126143   0.9615078  30.1083508  56.6090939   0.9245213  29.2951313
  57.4056750   1.8707820  30.1680164  53.3569029   1.0453807  29.1149689
  54.2222026   0.8496616  28.7555579  53.4246538   0.8164159  30.0419046
  62.9714160  11.3351388  22.5859883  62.1943602  10.9962548  22.1415045
  63.6505641  11.3404011  21.9114848  57.7866189   6.4546126  22.4766491
  57.4816324   6.7692275  23.3276634  58.7396631   6.5327546  22.5193824
  56.2312620  12.6136349  24.1259445  55.7033982  11.8789109  23.8132682
  55.7300123  13.3911025  23.8799413  61.2105466  10.8085369  29.2426491
  60.5529141  11.4984631  29.3306619  62.0145866  11.1981801  29.5860477
  50.9631348   3.2756015  26.4866056  51.5375100   3.0531197  25.7539249
  51.5502331   3.3444710  27.2394657  60.0210925   9.1629742  27.2930433
  60.5342807   9.7959734  27.7952142  60.6712149   8.5630938  26.9273793
  51.2900935   5.3060476  20.5061941  50.4538247   5.6435163  20.8271216
  51.1505705   5.1709456  19.5689078  53.2654016   0.1497264  25.2141126
  52.6118428  -0.1653719  24.5897740  53.2234490  -0.4726995  25.9400948
  54.3765221  10.4316559  17.1294418  53.4692282  10.2005813  17.3285567
  54.8736253   9.6354178  17.3168399  57.2833300  19.1414066  20.0491104
  56.6094998  19.4445763  20.6576062  57.6699121  19.9443147  19.6996561
  56.4991756   6.6379198  29.5388773  55.5814318   6.8594145  29.3810461
  56.9151900   6.7125508  28.6800480  57.2826804   8.0370613  24.6691453
  58.0298623   8.5492011  24.3598575  57.5518393   7.7154666  25.5295847
  55.5553454  10.5329154  21.6518408  54.6464673  10.2488187  21.7490877
  55.5848538  10.9528233  20.7921715  60.7872721  14.1435744  25.4209575
  60.3335049  13.3026653  25.4774766  60.1566688  14.7797142  25.7584355
  59.7305641   5.0727730  26.6510243  58.9928398   4.5605116  26.9820485
  59.9832415   4.6328111  25.8393520  59.2305661  15.9812240  26.3559393
  59.5228635  16.5417297  25.6371759  59.7404281  16.2740801  27.1112552
  46.1241624   8.2534668  25.6333610  45.9266024   7.6604029  24.9084676
  45.5688288   7.9486878  26.3509549  54.1038348   8.1457775  27.7528203
  54.1586958   7.1931611  27.6770680  53.2929550   8.3017214  28.2369501
  55.2529542  12.0737898  18.9906486  54.8148972  11.3573757  18.5312124
  55.9939983  12.3014013  18.4291578  52.0430708   6.7634834  25.5118582
  51.2298574   7.0629005  25.9183774  52.5389702   6.3690523  26.2293064
  54.1939286  16.7592591  27.4452847  54.1515465  16.9853438  26.5161379
  55.1101985  16.5255966  27.5938648  57.6404920   7.2276659  34.3433476
  57.9954307   7.4548132  35.2027942  58.2877051   7.5595036  33.7210731
  63.3702657  10.3495095  25.0482805  63.2320555  10.5396691  24.1203994
  63.0138875  11.1114478  25.5050856  51.5344783   4.3353190  31.1279817
  52.1744162   4.1941949  30.4302780  50.7022313   4.0487703  30.7518419
  63.3972036  12.4171622  30.0594076  63.8308543  12.3246911  30.9077130
  64.1103617  12.3929122  29.4214092  52.3105087  13.6355620  27.2414809
  53.1045685  13.1405941  27.0397384  51.5996779  13.1073484  26.8782515
  57.1299931  16.0173716  31.5927177  57.1836953  16.5864652  32.3604893
  56.2614713  16.1875601  31.2281214  48.6187850   7.7798702  23.3174562
  47.6885438   7.7183158  23.5344524  48.7145322   7.2574655  22.5211203
  48.5373399   4.3053515  25.9052804  48.7980217   5.2198848  25.7961964
  49.3590572   3.8377958  26.0549416  50.0098325   5.7191272  33.0751628
  50.6821378   5.5108634  32.4264277  49.1828111   5.5213358  32.6356860
  64.2587586  12.4595322  32.5926962  64.4523476  13.3641133  32.8386237
  64.1588204  12.0002742  33.4265547  55.9123897   2.3453213  35.0917289
  55.2651812   3.0443163  34.9981765  56.6824912   2.7789357  35.4593537
  59.3202695  12.6102065  38.1667842  59.1688201  12.3812617  37.2497926
  59.3107374  13.5672667  38.1799187  56.0888031  10.1833978  33.1514109
  57.0180091  10.3345138  32.9783076  55.6679061  10.2717999  32.2962755
  54.8876363  14.2084642  30.9212646  54.7487448  13.8403427  31.7938585
  54.0990959  14.7232282  30.7496604  55.4824515  19.3093739  22.2638183
  55.6576270  18.8381782  23.0783806  54.7957303  19.9359505  22.4919444
  56.4381578  13.5866245  28.3101484  56.1031410  13.5467015  29.2059134
  55.9385524  12.9210961  27.8371894  50.4125822   8.9933875  33.8354065
  50.2745620   8.2614114  34.4365604  51.3230745   8.9042775  33.5538253
  59.3740769  10.9322279  18.5838544  58.7569940  10.2069108  18.4871597
  58.9057258  11.6931640  18.2405618  53.0408122   8.7053834  33.3237745
  53.7507741   8.0647027  33.2824363  52.9977431   8.9566729  34.2463926
  61.0294901  15.6421188  36.2444324  60.9707447  14.9580408  35.5774907
  61.4314420  16.3840178  35.7924950  51.7537056   5.6919052  35.1433384
  51.2174413   5.2409791  35.7954981  51.1653765   5.8264961  34.4003849
  50.0485600  22.4583102  29.0378043  50.2882198  23.0901626  29.7157062
  49.2054796  22.1071142  29.3243402  61.0312308  13.6060772  34.4758304
  60.1439087  13.2686693  34.5984703  61.6010859  12.8743803  34.7127069
  42.6841456   9.9384863  27.8001355  43.3712495   9.6246593  27.2122371
  42.5289584  10.8426228  27.5268607  47.4876178   4.8275060  32.2286379
  47.4034366   4.2200730  31.4936789  46.6658884   5.3184078  32.2295875
  54.5613462  18.2662224  31.4419547  54.4883633  19.0717196  31.9538852
  54.1190855  18.4654190  30.6167568  54.3503241  17.5033994  24.9522369
  53.5670763  18.0455674  25.0460593  55.0495987  18.0207974  25.3516610
  57.6599892   3.3128624  27.5956574  58.1568591   2.5598586  27.2757644
  56.8886873   3.3492940  27.0299783  65.5129649   9.0168989  29.2374866
  65.5019525   9.8993704  28.8668799  64.6447028   8.6640540  29.0429403
  57.0212145  18.1649058  33.5977706  57.7340118  18.7996523  33.5253607
  56.5302174  18.2612924  32.7817708  58.7429672  12.0700311  25.1694997
  57.8085951  12.1901773  24.9999702  58.9206341  11.1672778  24.9055007
  54.2434860   5.4546007  27.3228259  53.8732648   4.9017047  28.0109164
  54.7393953   4.8504140  26.7703259  62.1302224   7.9117630  25.7045032
  62.5962676   8.7445622  25.6305334  62.5809724   7.4462612  26.4090290
  52.0724059  15.9143502  34.4183277  52.7733518  16.5479985  34.5712671
  51.6019174  16.2558233  33.6578916  60.1978455  14.2561451  22.7031184
  60.4738299  14.1418046  23.6125058  59.3282953  13.8578936  22.6643357
  60.1018886   0.2798217  29.7435933  59.1881966   0.5102444  29.9118140
  60.5311988   0.3636661  30.5949965  59.8725345   8.4688109  32.2435827
  59.2196795   8.7164016  31.5888280  60.2505725   7.6552247  31.9098304
  56.8332519  18.5047802  26.3463997  57.0154913  17.6869458  26.8091750
  57.6565505  18.7215494  25.9088887  57.1674684  17.4315987  23.6079046
  57.6962451  16.9208442  22.9949208  57.4302904  17.1158518  24.4724579
  55.9212918   9.2107920  38.7301864  55.2453555   9.1102049  39.4004239
  56.7440552   9.0547134  39.1937861  47.6691777  15.4479857  31.3514379
  48.2545214  14.7023544  31.4842283  47.4716615  15.7583813  32.2351043
  50.5230432  18.4831104  26.3676822  49.8540807  18.9677232  25.8840862
  50.3843302  18.7300324  27.2820200  42.2609432   8.0185457  30.0718822
  42.2993531   7.4849047  30.8655940  41.7549724   7.4920662  29.4529800
  54.6635701  20.5174848  32.9659480  55.2154009  20.6806469  33.7308565
  55.0041894  21.1079285  32.2939505  49.6400194   2.8649997  33.5681365
  49.7041520   3.7264828  33.1558762  49.5767314   2.2523999  32.8353723
  49.1152466   4.9373130  37.2154399  49.7424505   4.5550207  37.8291923
  48.2580385   4.7187332  37.5810091  59.5146575  15.3436105  38.8208134
  60.0586479  15.9566063  38.3263089  58.9333420  15.9015683  39.3375147
  45.8918009   6.7449559  23.1472754  46.1871450   5.8360237  23.0939807
  44.9906045   6.7237298  22.8253756  57.8004088  18.4656823  29.9523162
  57.6755227  17.6646563  29.4434108  58.4583179  18.9603016  29.4637132
  49.4212256   4.8205556  29.1300302  48.6998842   5.4341523  28.9907776
  50.2105512   5.3563320  29.0516948  59.8638996  16.2665843  31.5802712
  58.9169332  16.1471194  31.5081039  60.2121770  15.3788341  31.6628974
  52.2238570   2.1559982  35.4040954  52.7472972   2.4022279  36.1667263
  52.0050903   2.9880017  34.9844091  47.6205851   4.4263657  23.2712079
  47.2918557   3.5461036  23.0887185  47.9745222   4.3711325  24.1588468
  56.8685430  16.0618559  27.7807064  56.7210392  15.1335267  27.9614635
  57.6938923  16.0838650  27.2964140  50.7347674   4.7136626  23.6387557
  51.0743746   5.2422548  22.9166165  51.1819794   5.0517033  24.4146123
  60.4719552  16.8847118  28.8671937  61.3966099  16.6789979  28.7296388
  60.3034855  16.6363519  29.7761279  53.4291115   3.0973677  33.0890625
  53.0887935   2.2981490  33.4911305  52.7230121   3.3975388  32.5167458
  54.0807587   0.1822990  31.5417948  54.9033656  -0.2916532  31.4196838
  54.3245650   0.9613473  32.0416634  52.7215821   3.2111248  21.8380849
  53.4424184   3.5892501  21.3344566  52.0981125   3.9300125  21.9415827
  56.8646944   3.9156397  22.7739182  57.0810558   4.7981035  22.4728010
  56.3841011   3.5242610  22.0444824  51.6046165   6.8742110  29.3509926
  51.4590746   7.1882413  30.2434208  51.1271369   7.4927011  28.7980825
  53.4642548   3.8644658  29.3990816  53.4504117   2.9685751  29.0623114
  54.1814976   3.8715322  30.0329102  55.3168679   4.2981998  31.4443943
  55.0586457   5.2199069  31.4428274  54.7853719   3.9012433  32.1344407
  60.2614868  17.4032786  24.2234029  60.4351745  16.8379208  23.4707881
  60.7543759  18.2033680  24.0413519  46.0791828   9.4147455  32.2897587
  45.5345296  10.1907263  32.4217862  46.9571177   9.7618259  32.1316709
  52.8679444   2.7459038  24.6678386  52.9895355   1.8175685  24.8669274
  52.5781487   2.7597724  23.7556701  55.7370635   0.4313949  27.8045106
  55.7592331   0.4953282  26.8497085  56.1538694  -0.4081542  27.9985612
  66.1154259  10.1669208  25.8424328  66.5585405   9.4176534  25.4443452
  65.2380769  10.1579345  25.4598060  61.2490040  16.7199550  21.3230927
  61.9440945  17.3406243  21.5418242  61.5913190  15.8694901  21.5983305
  46.8657849   8.5417351  35.1827744  46.1239585   8.6899986  35.7692375
  46.5450594   8.8025616  34.3194494  63.1481463  14.1699255  22.8518258
  63.6732787  14.5086528  22.1267578  63.0603816  13.2346271  22.6681392
  54.8101512  18.0833329  34.9808134  55.1188639  17.8382476  35.8530834
  55.6076994  18.2879968  34.4927005  54.8322124  20.2371239  27.2113511
  54.3927114  19.7447617  27.9046368  55.5830241  19.6944206  26.9705586
  47.3114463  16.4282780  27.2138139  48.1372483  16.1286551  26.8336783
  46.9608515  15.6590402  27.6627928  52.2795996  15.7809248  29.2835813
  51.6576006  15.1179953  28.9838040  52.9500863  15.8070380  28.6009460
  45.5123068  14.3469106  28.1727073  44.6754976  13.9191280  27.9911074
  45.4846714  14.5401549  29.1097864  52.3520524   4.2591036  38.8768319
  52.4008679   5.1353159  38.4946088  52.8943038   3.7168429  38.3039962
  62.8375369  14.8032159  38.1569456  62.0470913  14.7856298  37.6173955
  62.6008724  15.3420453  38.9118492  62.9573244  11.6524625  35.4702184
  63.0071249  11.4874633  36.4117707  62.8487168  10.7851884  35.0800065
  51.8409503  14.3313171  22.7594273  51.9897624  15.0148636  22.1060946
  52.6475947  14.3118261  23.2743729  60.2477007   7.6355553  36.7861491
  61.1486870   7.4962018  36.4945489  60.3224981   7.8010008  37.7259668
  54.5819812   5.0122408  35.6314677  53.7123122   5.3055974  35.3597266
  54.8179293   5.5962853  36.3521941  64.4591441  14.0721567  35.7144206
  64.1676250  14.4351548  36.5507667  63.8463573  13.3588575  35.5357538
  65.6587124  11.6374447  28.2346776  66.4934015  12.0764251  28.3984336
  65.7946252  11.1613100  27.4155022  62.7078630   9.1954182  34.1824264
  63.1832751   9.3881828  33.3743115  61.7844195   9.2513367  33.9367647
  49.5962136  10.3578349  23.7655342  49.3508178   9.4540679  23.9635552
  49.7658051  10.3595499  22.8234820  57.2858846   1.2302025  33.1480098
  57.8040790   1.9663052  32.8226586  56.9313979   1.5366018  33.9826857
  48.8657784   6.0906706  21.2641503  48.1727029   6.1651061  20.6081539
  48.6209536   5.3267050  21.7863020  55.3404909  16.8261302  20.2306021
  54.7678876  17.4451489  19.7776492  55.9137702  17.3760663  20.7645942
  61.4080299   6.0719942  32.4152569  62.3597721   6.1718039  32.4364793
  61.2383749   5.2798210  32.9250654  59.4294678   3.1575525  32.6011970
  58.8344610   3.4380538  31.9058459  59.1444375   3.6469426  33.3728711
  58.5602168  17.1098452  21.3614603  59.4932842  17.0444013  21.5647478
  58.4725381  17.9454719  20.9029135  61.1890185  16.4264322  18.3218550
  61.1103817  16.0924186  19.2154308  62.0099852  16.9186090  18.3210023
  63.8868376   9.2926061  31.5294869  63.8544696   8.3542062  31.7154553
  64.4969000   9.3710098  30.7960694  55.7251707   8.1622114  17.5722073
  56.6710812   8.0328322  17.6410491  55.3465952   7.4236776  18.0491501
  64.0362865   6.0837105  31.5753152  63.5201913   5.2995561  31.3883081
  64.9202813   5.7555821  31.7399672  61.6973592  -0.1721880  27.5348965
  61.4998413  -0.4806791  28.4192297  62.3073297   0.5539759  27.6646895
  69.7044926  10.3542068  30.6700906  70.4348315  10.0927356  31.2308609
  69.0951872   9.6170790  30.7102974  67.7860223   8.4949931  31.2675357
  67.0593387   8.3605896  30.6591849  67.3707510   8.8026759  32.0732075
  55.6090400  12.2139860  39.0322730  56.5293409  12.3918459  39.2262777
  55.5739983  11.2695906  38.8802429  44.8272565   7.4078454  27.9576005
  44.5075349   6.5543762  27.6650379  44.2805993   7.6227032  28.7133972
  48.6052472  10.1240895  31.6745511  48.8238482  11.0558003  31.6933545
  49.0178246   9.7648870  32.4600315  55.5256690   0.6308980  23.6621200
  54.7157418   0.2856065  24.0376446  56.2141107   0.3216524  24.2508811
  57.4547238  -0.2912973  25.2845496  58.0078277   0.1282481  25.9435519
  57.6917325  -1.2177225  25.3268452  53.4780338   5.6974101  41.0648260
  53.3777064   6.6468458  40.9960351  53.2601880   5.3692340  40.1924330
  44.6960825  11.0281366  29.9269126  44.0024296  10.6135318  29.4139081
  45.4433816  11.0701902  29.3302545  60.8326045   1.8187552  24.7924160
  60.2524714   2.4772356  24.4102213  60.5661978   0.9964897  24.3811578
  59.2829612   1.2192610  26.9945481  59.7829390   1.3309145  26.1859800
  59.9265220   0.9153663  27.6346289  53.3411608   9.1271240  39.8813322
  52.8578689   9.9271600  40.0877211  53.4272547   9.1379185  38.9280766
  46.6097567  10.9599619  27.8035141  46.5868255  11.0587307  26.8517024
  46.9198204  11.8064770  28.1252307  49.2684945  13.0175774  31.9181756
  50.2228199  12.9859717  31.8511687  49.0697469  12.5566398  32.7331981
  49.8584327  11.5876890  34.4852553  50.6777216  12.0820969  34.5087390
  50.1321135  10.6708859  34.4570121  59.6150923   3.9787643  23.8480509
  58.7276778   4.2637293  23.6300703  60.0304913   3.8181406  23.0007786
  62.9665460   4.0034164  27.5634848  63.7425850   4.4930616  27.8359465
  62.2413594   4.4292218  28.0206717  65.4038018   4.7161783  28.6208789
  65.9982509   4.4757519  27.9102097  65.4764602   3.9968914  29.2482325
  47.6235174  18.5595394  28.9351953  47.4889642  17.7995795  28.3689951
  47.2067236  19.2836294  28.4680742  58.7594137  13.7432317  17.9428529
  59.4629987  13.9482320  18.5586184  58.0356786  14.3109079  18.2077612
  59.5891947   9.4942179  24.0630799  59.5327149   9.9510730  23.2238431
  60.1420290   8.7332863  23.8853642  63.3996753   5.2831911  24.8880918
  63.1433687   4.8828546  25.7189126  62.7749621   5.9975705  24.7631058
  67.7109091   8.0227984  27.3952210  67.1508649   8.0921173  28.1683772
  67.1052594   7.8468968  26.6751706  50.7804300  19.4564711  29.1470396
  50.6636684  20.4010143  29.0449086  49.9596746  19.1538273  29.5356195
  60.6680834  14.1814847  19.9926989  61.5026438  13.7496045  19.8104464
  60.5065177  14.0096860  20.9203883  60.3226727  10.6846960  21.3583328
  60.2675530  10.5191231  20.4171772  59.6972782  11.3922993  21.5145518
  45.1119242   5.9215024  35.1844750  45.7578105   5.4113978  35.6731975
  44.9036393   6.6583706  35.7588176  57.6372634  12.9895872  40.6836891
  58.5063793  13.1636524  40.3223526  57.1579385  13.8090289  40.5612620
  53.6322852   0.1855069  20.9368646  53.6201522   1.1296909  21.0936917
  54.5246274   0.0025214  20.6428108  51.8058814  20.1092973  32.3626324
  52.7086061  20.1416583  32.6792819  51.5796184  19.1793424  32.3772660
  53.5612416  18.8623959  29.0236403  52.6108047  18.8625821  28.9100775
  53.8644902  18.1156694  28.5072438  49.4516733   3.0682641  39.2819765
  50.3148194   2.7119446  39.4923089  48.8782143   2.7296536  39.9695169
  69.2965109  24.6984498  30.0882166  69.9343519  24.5791245  29.3845506
  69.1785952  25.6465342  30.1470118  66.1054816  24.6511926  30.0243690
  65.7673327  24.5352991  29.1364225  66.9744584  24.2503091  30.0044696
  61.9641631  26.5047402  26.0140581  61.4006497  26.4137339  25.2456869
  61.8494026  25.6847307  26.4943074  66.5874599  25.8046778  35.9829896
  66.5763239  25.4099576  35.1110399  66.7495238  25.0712850  36.5763667
  59.5106063  27.9998594  28.8524802  60.3027355  27.6589419  28.4371101
  59.7502714  28.1093569  29.7726955  67.5441190  30.1718370  21.3255046
  66.8929170  30.7572450  20.9389060  68.3385553  30.7024565  21.3850084
  61.4696817  27.2607507  21.7242180  62.2427693  26.7136494  21.5855056
  61.8222216  28.1251756  21.9356642  63.3081860  28.5883889  34.9309080
  63.0171726  29.4929520  34.8155746  63.9438844  28.6300417  35.6453149
  64.2338067  25.9660738  31.5210439  64.8301639  25.7416760  30.8067402
  64.2913038  25.2245483  32.1235887  63.8063095  23.4200173  19.3560630
  64.0588616  22.8981695  18.5944093  62.8687654  23.2566319  19.4587314
  68.8506378  22.4235952  27.1635374  69.6369467  22.0055375  26.8125791
  69.1145082  23.3282044  27.3317022  69.0216455  27.8608802  21.8624030
  68.3862288  27.9343428  22.5744935  68.6913862  28.4502401  21.1843110
  74.2514805  22.3611185  28.0668352  74.9839977  21.7910402  28.3006182
  73.4954161  21.9732785  28.5074858  63.5259384  25.3228279  21.5585005
  63.4095642  24.6473183  22.2266090  63.6361644  24.8360653  20.7417158
  65.8690925  24.7838426  25.2631695  65.5049132  24.2569047  25.9744616
  66.7258041  24.3936895  25.0898180  71.7740225  16.0732759  32.5262961
  71.4423550  16.9428170  32.3024176  71.1785839  15.7569043  33.2056991
  65.5096412  19.8128326  20.2593043  65.6770814  20.6808562  20.6263514
  65.3193581  19.9755608  19.3354332  68.2671745  28.2745305  31.9258873
  67.9672468  29.1770344  31.8174681  67.9222804  28.0077488  32.7780026
  61.7184226  24.7259102  27.9595578  60.7934723  24.5935316  28.1673270
  61.9668640  25.5053321  28.4565520  71.6668889  20.7927845  29.6056311
  70.7585766  20.7243254  29.3115072  71.6156485  21.2699790  30.4338136
  65.4885633  22.2685984  21.2439710  65.3685258  22.7143034  22.0825190
  64.7938221  22.6171301  20.6853248  59.0793037  24.3692375  28.7939367
  59.2085419  24.6226854  29.7078779  58.3990489  24.9620083  28.4744022
  63.2492525  35.0389625  24.8929841  63.1716554  35.9897450  24.9718322
  62.6454168  34.6935498  25.5504767  65.7409754  22.2117491  37.5491208
  64.9643089  22.7711411  37.5394073  66.3800318  22.6974274  38.0706078
  73.5330535  18.9944284  31.3834185  72.8904915  19.2876817  30.7373979
  73.0285464  18.8797204  32.1887381  71.1870699  22.7407457  22.0720044
  72.0988555  22.9734843  21.8967741  70.6780346  23.3244501  21.5095123
  63.9956127  25.0202944  37.1109175  64.7370811  25.5587988  36.8343999
  63.2893112  25.6469233  37.2680727  69.4711466  27.1632085  35.7081336
  69.8794822  26.7214495  34.9635969  68.7488728  26.5884712  35.9615529
  65.8242536  22.1004691  33.0814893  66.6703732  22.5244105  33.2249542
  65.7641174  21.4438316  33.7753457  69.7940281  27.7233275  29.4633625
  69.1649144  27.8878989  28.7609693  69.4065943  28.1374885  30.2344589
  73.6729513  28.6587713  26.8177989  72.9880551  29.0386614  26.2675022
  73.7573362  29.2683040  27.5509937  68.9741982  19.7609060  34.7396067
  68.7302914  20.5151120  34.2030343  69.2501912  20.1394407  35.5743314
  70.9280445  26.3047672  33.4173333  71.1397340  26.9479432  32.7407714
  70.8810193  25.4709989  32.9495263  68.5306674  18.9165493  30.3209905
  67.6691153  19.2146746  30.6126642  68.5569108  19.1335892  29.3890937
  65.3468243  27.4607683  26.7283710  65.8106588  27.7395386  25.9388333
  65.0825041  26.5591128  26.5456801  62.2392324  27.0079165  29.6663474
  62.8093681  27.4366433  29.0280958  62.8300436  26.7261749  30.3647659
  64.2837129  23.5830836  23.5373276  64.9861172  24.0351879  24.0047202
  63.9517758  22.9414654  24.1653169  62.7317491  22.1742592  37.9124485
  62.1016151  22.8558873  38.1459882  62.6253578  22.0625674  36.9677623
  58.0262463  21.8414388  28.8390409  57.2361517  22.0971917  28.3630520
  58.5173710  22.6562726  28.9442450  72.0426273  29.1819627  31.5895690
  72.8643716  28.7799815  31.3078372  72.0388675  29.0787862  32.5411806
  59.9777208  22.2058968  25.7973886  59.1808372  22.3177662  26.3157382
  59.7502801  22.5445620  24.9314776  65.8082876  28.7303671  33.7456401
  65.8727309  29.1924078  34.5814572  65.0993800  28.1001036  33.8738710
  56.3100166  22.0944879  31.2705400  56.5608204  22.9791889  31.5362976
  56.8459714  21.9149480  30.4980492  80.1332266  25.5258376  27.9380661
  79.3795974  24.9565774  27.7824666  80.2679807  25.4921040  28.8851296
  65.5230894  30.3971778  23.6135381  65.3876568  31.2423314  24.0420229
  66.0640706  30.5991056  22.8501315  62.0098233  16.4763358  40.2749736
  61.6165179  15.9229557  40.9497380  62.8264374  16.7873937  40.6656254
  58.9760291  27.9147216  24.1863306  59.4884812  28.7090467  24.3368871
  59.6283004  27.2173507  24.1196907  60.7855176  31.0312973  26.2686059
  60.9621804  31.9530937  26.0807043  61.5812009  30.7171392  26.6980439
  64.9266194  17.8921237  37.8669993  65.6675908  18.4928390  37.7874455
  65.1584117  17.1498875  37.3088035  60.0707532  23.0777604  36.1448222
  59.9561047  22.1762862  36.4455321  59.2152050  23.3241301  35.7933039
  67.1499370  31.0195345  37.7435723  66.7063224  30.2331723  37.4256627
  67.8116584  31.2074495  37.0779614  61.9086491  32.5491146  32.2696401
  62.4593916  32.4208210  31.4973395  61.0697967  32.8486035  31.9191294
  69.2480608  31.2998145  35.7717124  69.2299083  32.1207026  35.2797393
  70.1700528  31.1752220  35.9967265  65.7053662  28.8142274  36.6140633
  66.2381999  28.0530562  36.3839941  65.1767743  28.5215926  37.3564787
  68.8723357  13.9202340  32.1434274  68.5287627  14.8103982  32.0673385
  69.2402320  13.7303998  31.2803859  56.9409208  26.2435871  24.9622876
  57.7784430  26.6532879  24.7456584  57.1187476  25.3035313  24.9323070
  68.8373640  23.9110951  20.6506709  68.3220263  24.6815556  20.8895097
  68.5650948  23.2376087  21.2739771  66.4220751  18.7560652  25.7091948
  65.5662347  18.3667502  25.5297586  66.8347703  18.8352613  24.8491733
  67.9519898  16.2906995  30.1083508  67.4484693  16.2537130  29.2951313
  68.2450504  17.1999738  30.1680164  64.1962783  16.3745725  29.1149689
  65.0615780  16.1788534  28.7555579  64.2640292  16.1456077  30.0419046
  73.8107914  26.6643306  22.5859883  73.0337357  26.3254465  22.1415045
  74.4899395  26.6695929  21.9114848  68.6259943  21.7838043  22.4766491
  68.3210079  22.0984193  23.3276634  69.5790385  21.8619463  22.5193824
  67.0706375  27.9428267  24.1259445  66.5427737  27.2081026  23.8132682
  66.5693878  28.7202943  23.8799413  72.0499221  26.1377287  29.2426491
  71.3922895  26.8276549  29.3306619  72.8539620  26.5273719  29.5860477
  61.8025103  18.6047933  26.4866056  62.3768854  18.3823114  25.7539249
  62.3896085  18.6736627  27.2394657  70.8604680  24.4921660  27.2930433
  71.3736562  25.1251652  27.7952142  71.5105904  23.8922855  26.9273793
  62.1294690  20.6352394  20.5061941  61.2932002  20.9727080  20.8271216
  61.9899459  20.5001374  19.5689078  64.1047770  15.4789182  25.2141126
  63.4512183  15.1638199  24.5897740  64.0628244  14.8564922  25.9400948
  65.2158975  25.7608477  17.1294418  64.3086037  25.5297730  17.3285567
  65.7130007  24.9646096  17.3168399  68.1227054  34.4705984  20.0491104
  67.4488753  34.7737681  20.6576062  68.5092876  35.2735064  19.6996561
  67.3385511  21.9671115  29.5388773  66.4208072  22.1886062  29.3810461
  67.7545654  22.0417426  28.6800480  68.1220558  23.3662531  24.6691453
  68.8692377  23.8783928  24.3598575  68.3912148  23.0446584  25.5295847
  66.3947209  25.8621072  21.6518408  65.4858428  25.5780105  21.7490877
  66.4242292  26.2820150  20.7921715  71.6266476  29.4727661  25.4209575
  71.1728803  28.6318571  25.4774766  70.9960443  30.1089060  25.7584355
  70.5699396  20.4019647  26.6510243  69.8322152  19.8897034  26.9820485
  70.8226169  19.9620029  25.8393520  70.0699415  31.3104158  26.3559393
  70.3622390  31.8709215  25.6371759  70.5798036  31.6032719  27.1112552
  70.6711023  13.1795899  27.2452012  70.9769900  12.3193263  26.9577927
  71.3963628  13.7713520  27.0451006  56.9635379  23.5826586  25.6333610
  56.7659779  22.9895947  24.9084676  56.4082043  23.2778796  26.3509549
  64.9432103  23.4749692  27.7528203  64.9980712  22.5223529  27.6770680
  64.1323305  23.6309131  28.2369501  66.0923296  27.4029815  18.9906486
  65.6542726  26.6865674  18.5312124  66.8333737  27.6305930  18.4291578
  62.8824463  22.0926752  25.5118582  62.0692328  22.3920923  25.9183774
  63.3783457  21.6982441  26.2293064  65.0333040  32.0884509  27.4452847
  64.9909219  32.3145355  26.5161379  65.9495739  31.8547884  27.5938648
  68.4798674  22.5568577  34.3433476  68.8348062  22.7840050  35.2027942
  69.1270805  22.8886953  33.7210731  74.2096411  25.6787012  25.0482805
  74.0714310  25.8688608  24.1203994  73.8532630  26.4406395  25.5050856
  62.3738537  19.6645108  31.1279817  63.0137917  19.5233867  30.4302780
  61.5416068  19.3779621  30.7518419  74.2365791  27.7463539  30.0594076
  74.6702297  27.6538829  30.9077130  74.9497371  27.7221040  29.4214092
  63.1498841  28.9647538  27.2414809  63.9439440  28.4697858  27.0397384
  62.4390534  28.4365401  26.8782515  67.9693686  31.3465634  31.5927177
  68.0230708  31.9156570  32.3604893  67.1008467  31.5167519  31.2281214
  59.4581605  23.1090620  23.3174562  58.5279193  23.0475075  23.5344524
  59.5539077  22.5866573  22.5211203  59.3767154  19.6345433  25.9052804
  59.6373971  20.5490766  25.7961964  60.1984326  19.1669875  26.0549416
  60.8492079  21.0483190  33.0751628  61.5215132  20.8400552  32.4264277
  60.0221866  20.8505276  32.6356860  75.0981340  27.7887240  32.5926962
  75.2917230  28.6933051  32.8386237  74.9981958  27.3294659  33.4265547
  66.7517651  17.6745131  35.0917289  66.1045566  18.3735080  34.9981765
  67.5218666  18.1081275  35.4593537  70.1596449  27.9393983  38.1667842
  70.0081955  27.7104535  37.2497926  70.1501128  28.8964584  38.1799187
  66.9281785  25.5125896  33.1514109  67.8573845  25.6637055  32.9783076
  66.5072815  25.6009916  32.2962755  65.7270117  29.5376560  30.9212646
  65.5881203  29.1695344  31.7938585  64.9384713  30.0524199  30.7496604
  66.3218269  34.6385657  22.2638183  66.4970025  34.1673700  23.0783806
  65.6351057  35.2651423  22.4919444  67.2775332  28.9158163  28.3101484
  66.9425165  28.8758933  29.2059134  66.7779278  28.2502879  27.8371894
  61.2519576  24.3225793  33.8354065  61.1139374  23.5906032  34.4365604
  62.1624500  24.2334693  33.5538253  70.2134524  26.2614197  18.5838544
  69.5963695  25.5361025  18.4871597  69.7451012  27.0223557  18.2405618
  63.8801877  24.0345752  33.3237745  64.5901495  23.3938944  33.2824363
  63.8371185  24.2858647  34.2463926  71.8688656  30.9713105  36.2444324
  71.8101202  30.2872326  35.5774907  72.2708174  31.7132095  35.7924950
  62.5930811  21.0210970  35.1433384  62.0568168  20.5701708  35.7954981
  62.0047519  21.1556879  34.4003849  60.8879354  37.7875019  29.0378043
  61.1275953  38.4193543  29.7157062  60.0448551  37.4363059  29.3243402
  62.0033070  20.4799621  17.7059848  61.1262536  20.3588422  17.3422095
  62.4790823  19.6885700  17.4538737  71.8706063  28.9352689  34.4758304
  70.9832842  28.5978611  34.5984703  72.4404614  28.2035721  34.7127069
  53.5235210  25.2676781  27.8001355  54.2106250  24.9538511  27.2122371
  53.3683339  26.1718146  27.5268607  58.3269932  20.1566978  32.2286379
  58.2428121  19.5492647  31.4936789  57.5052639  20.6475996  32.2295875
  65.4007216  33.5954142  31.4419547  65.3277388  34.4009113  31.9538852
  64.9584609  33.7946108  30.6167568  65.1896996  32.8325912  24.9522369
  64.4064518  33.3747592  25.0460593  65.8889741  33.3499891  25.3516610
  68.4993646  18.6420541  27.5956574  68.9962346  17.8890504  27.2757644
  67.7280628  18.6784858  27.0299783  76.3523403  24.3460907  29.2374866
  76.3413280  25.2285622  28.8668799  75.4840783  23.9932458  29.0429403
  67.8605900  33.4940976  33.5977706  68.5733872  34.1288441  33.5253607
  67.3695928  33.5904842  32.7817708  69.5823427  27.3992228  25.1694997
  68.6479705  27.5193691  24.9999702  69.7600095  26.4964695  24.9055007
  65.0828615  20.7837924  27.3228259  64.7126402  20.2308965  28.0109164
  65.5787707  20.1796058  26.7703259  72.9695978  23.2409548  25.7045032
  73.4356430  24.0737539  25.6305334  73.4203479  22.7754529  26.4090290
  62.9117813  31.2435419  34.4183277  63.6127273  31.8771902  34.5712671
  62.4412928  31.5850151  33.6578916  71.0372209  29.5853369  22.7031184
  71.3132053  29.4709964  23.6125058  70.1676708  29.1870854  22.6643357
  70.9412641  15.6090135  29.7435933  70.0275721  15.8394362  29.9118140
  71.3705742  15.6928579  30.5949965  70.7119099  23.7980027  32.2435827
  70.0590550  24.0455934  31.5888280  71.0899479  22.9844165  31.9098304
  67.6726273  33.8339720  26.3463997  67.8548668  33.0161376  26.8091750
  68.4959259  34.0507412  25.9088887  68.0068439  32.7607905  23.6079046
  68.5356205  32.2500360  22.9949208  68.2696658  32.4450435  24.4724579
  66.7606672  24.5399838  38.7301864  66.0847309  24.4393967  39.4004239
  67.5834306  24.3839051  39.1937861  58.5085531  30.7771774  31.3514379
  59.0938968  30.0315462  31.4842283  58.3110370  31.0875731  32.2351043
  61.3624187  33.8123022  26.3676822  60.6934562  34.2969149  25.8840862
  61.2237056  34.0592242  27.2820200  53.1003186  23.3477374  30.0718822
  53.1387286  22.8140965  30.8655940  52.5943479  22.8212580  29.4529800
  65.5029455  35.8466765  32.9659480  66.0547763  36.0098387  33.7308565
  65.8435649  36.4371203  32.2939505  60.4793948  18.1941915  33.5681365
  60.5435275  19.0556746  33.1558762  60.4161069  17.5815917  32.8353723
  59.9546221  20.2665048  37.2154399  60.5818260  19.8842125  37.8291923
  59.0974140  20.0479249  37.5810091  70.3540330  30.6728023  38.8208134
  70.8980234  31.2857981  38.3263089  69.7727174  31.2307601  39.3375147
  56.7311764  22.0741477  23.1472754  57.0265205  21.1652155  23.0939807
  55.8299799  22.0529216  22.8253756  68.6397843  33.7948741  29.9523162
  68.5148982  32.9938481  29.4434108  69.2976934  34.2894934  29.4637132
  60.2606011  20.1497473  29.1300302  59.5392596  20.7633441  28.9907776
  61.0499267  20.6855238  29.0516948  70.7032751  31.5957761  31.5802712
  69.7563086  31.4763112  31.5081039  71.0515524  30.7080259  31.6628974
  63.0632324  17.4851900  35.4040954  63.5866726  17.7314196  36.1667263
  62.8444658  18.3171935  34.9844091  58.4599605  19.7555574  23.2712079
  58.1312311  18.8752953  23.0887185  58.8138976  19.7003243  24.1588468
  67.7079184  31.3910477  27.7807064  67.5604147  30.4627184  27.9614635
  68.5332678  31.4130568  27.2964140  61.5741428  20.0428544  23.6387557
  61.9137501  20.5714465  22.9166165  62.0213549  20.3808950  24.4146123
  71.3113306  32.2139036  28.8671937  72.2359854  32.0081897  28.7296388
  71.1428609  31.9655437  29.7761279  64.2684869  18.4265595  33.0890625
  63.9281690  17.6273408  33.4911305  63.5623876  18.7267306  32.5167458
  64.9201341  15.5114907  31.5417948  65.7427410  15.0375385  31.4196838
  65.1639405  16.2905391  32.0416634  63.5609576  18.5403166  21.8380849
  64.2817938  18.9184418  21.3344566  62.9374880  19.2592042  21.9415827
  67.7040699  19.2448315  22.7739182  67.9204313  20.1272953  22.4728010
  67.2234766  18.8534528  22.0444824  62.4439920  22.2034028  29.3509926
  62.2984501  22.5174331  30.2434208  61.9665124  22.8218928  28.7980825
  64.3036303  19.1936576  29.3990816  64.2897872  18.2977669  29.0623114
  65.0208731  19.2007240  30.0329102  66.1562433  19.6273916  31.4443943
  65.8980211  20.5490987  31.4428274  65.6247474  19.2304351  32.1344407
  71.1008622  32.7324703  24.2234029  71.2745500  32.1671126  23.4707881
  71.5937513  33.5325598  24.0413519  56.9185582  24.7439372  32.2897587
  56.3739050  25.5199180  32.4217862  57.7964932  25.0910177  32.1316709
  63.7073199  18.0750956  24.6678386  63.8289110  17.1467602  24.8669274
  63.4175241  18.0889642  23.7556701  66.5764389  15.7605867  27.8045106
  66.5986086  15.8245200  26.8497085  66.9932448  14.9210375  27.9985612
  76.9548013  25.4961126  25.8424328  77.3979159  24.7468451  25.4443452
  76.0774524  25.4871262  25.4598060  72.0883795  32.0491468  21.3230927
  72.7834699  32.6698160  21.5418242  72.4306945  31.1986819  21.5983305
  57.7051604  23.8709269  35.1827744  56.9633340  24.0191904  35.7692375
  57.3844348  24.1317534  34.3194494  73.9875218  29.4991173  22.8518258
  74.5126542  29.8378446  22.1267578  73.8997570  28.5638188  22.6681392
  65.6495267  33.4125247  34.9808134  65.9582393  33.1674394  35.8530834
  66.4470749  33.6171885  34.4927005  65.6715879  35.5663156  27.2113511
  65.2320869  35.0739535  27.9046368  66.4223996  35.0236124  26.9705586
  58.1508218  31.7574697  27.2138139  58.9766237  31.4578469  26.8336783
  57.8002270  30.9882320  27.6627928  63.1189751  31.1101165  29.2835813
  62.4969760  30.4471871  28.9838040  63.7894618  31.1362297  28.6009460
  56.3516823  29.6761024  28.1727073  55.5148731  29.2483198  27.9911074
  56.3240468  29.8693467  29.1097864  63.1914278  19.5882954  38.8768319
  63.2402434  20.4645076  38.4946088  63.7336792  19.0460347  38.3039962
  73.6769124  30.1324077  38.1569456  72.8864668  30.1148216  37.6173955
  73.4402478  30.6712370  38.9118492  73.7966999  26.9816543  35.4702184
  73.8465004  26.8166551  36.4117707  73.6880922  26.1143802  35.0800065
  62.6803258  29.6605089  22.7594273  62.8291378  30.3440553  22.1060946
  63.4869701  29.6410179  23.2743729  71.0870761  22.9647471  36.7861491
  71.9880624  22.8253936  36.4945489  71.1618736  23.1301926  37.7259668
  65.4213567  20.3414326  35.6314677  64.5516876  20.6347892  35.3597266
  65.6573047  20.9254771  36.3521941  75.2985196  29.4013485  35.7144206
  75.0070004  29.7643465  36.5507667  74.6857327  28.6880493  35.5357538
  76.4980878  26.9666364  28.2346776  77.3327769  27.4056168  28.3984336
  76.6340007  26.4905018  27.4155022  73.5472384  24.5246099  34.1824264
  74.0226506  24.7173746  33.3743115  72.6237949  24.5805285  33.9367647
  60.4355891  25.6870266  23.7655342  60.1901933  24.7832596  23.9635552
  60.6051805  25.6887417  22.8234820  68.1252601  16.5593943  33.1480098
  68.6434544  17.2954970  32.8226586  67.7707733  16.8657936  33.9826857
  59.7051538  21.4198624  21.2641503  59.0120783  21.4942979  20.6081539
  59.4603290  20.6558968  21.7863020  68.3765195  12.9794225  28.6680994
  68.6566948  12.3117414  29.2941421  69.1615802  13.1723321  28.1555658
  66.1798663  32.1553219  20.2306021  65.6072630  32.7743406  19.7776492
  66.7531457  32.7052581  20.7645942  72.2474053  21.4011859  32.4152569
  73.1991476  21.5009957  32.4364793  72.0777503  20.6090128  32.9250654
  70.2688433  18.4867443  32.6011970  69.6738365  18.7672455  31.9058459
  69.9838129  18.9761344  33.3728711  69.3995923  32.4390369  21.3614603
  70.3326596  32.3735931  21.5647478  69.3119136  33.2746636  20.9029135
  72.0283940  31.7556240  18.3218550  71.9497571  31.4216103  19.2154308
  72.8493606  32.2478008  18.3210023  74.7262131  24.6217979  31.5294869
  74.6938451  23.6833980  31.7154553  75.3362754  24.7002016  30.7960694
  66.5645462  23.4914032  17.5722073  67.5104566  23.3620240  17.6410491
  66.1859707  22.7528694  18.0491501  74.8756619  21.4129022  31.5753152
  74.3595668  20.6287479  31.3883081  75.7596568  21.0847739  31.7399672
  72.5367346  15.1570038  27.5348965  72.3392167  14.8485126  28.4192297
  73.1467052  15.8831677  27.6646895  80.5438681  25.6833986  30.6700906
  81.2742069  25.4219274  31.2308609  79.9345626  24.9462708  30.7102974
  78.6253978  23.8241848  31.2675357  77.8987141  23.6897813  30.6591849
  78.2101265  24.1318677  32.0732075  66.4484154  27.5431778  39.0322730
  67.3687164  27.7210377  39.2262777  66.4133737  26.5987824  38.8802429
  64.7488379  21.4164008  17.5076958  63.8419834  21.1197121  17.5839672
  65.0264360  21.1193827  16.6411245  55.6666319  22.7370372  27.9576005
  55.3469104  21.8835680  27.6650379  55.1199747  22.9518950  28.7133972
  59.4446227  25.4532813  31.6745511  59.6632237  26.3849921  31.6933545
  59.8572001  25.0940787  32.4600315  66.3650445  15.9600898  23.6621200
  65.5551173  15.6147983  24.0376446  67.0534861  15.6508442  24.2508811
  68.2940993  15.0378945  25.2845496  68.8472031  15.4574398  25.9435519
  68.5311079  14.1114693  25.3268452  64.3174092  21.0266019  41.0648260
  64.2170819  21.9760376  40.9960351  64.0995634  20.6984257  40.1924330
  63.5187163  18.2750944  17.6488937  64.3806327  18.6005842  17.9084755
  63.7037508  17.4882440  17.1362003  55.5354579  26.3573283  29.9269126
  54.8418051  25.9427236  29.4139081  56.2827570  26.3993820  29.3302545
  71.6719800  17.1479470  24.7924160  71.0918469  17.8064274  24.4102213
  71.4055733  16.3256815  24.3811578  70.1223366  16.5484528  26.9945481
  70.6223145  16.6601062  26.1859800  70.7658974  16.2445581  27.6346289
  64.1805362  24.4563157  39.8813322  63.6972444  25.2563518  40.0877211
  64.2666301  24.4671102  38.9280766  57.4491322  26.2891537  27.8035141
  57.4262010  26.3879224  26.8517024  57.7591958  27.1356688  28.1252307
  60.1078700  28.3467692  31.9181756  61.0621953  28.3151634  31.8511687
  59.9091223  27.8858316  32.7331981  60.6978082  26.9168808  34.4852553
  61.5170971  27.4112887  34.5087390  60.9714889  26.0000776  34.4570121
  70.4544678  19.3079560  23.8480509  69.5670533  19.5929211  23.6300703
  70.8698667  19.1473324  23.0007786  73.8059214  19.3326081  27.5634848
  74.5819604  19.8222534  27.8359465  73.0807348  19.7584136  28.0206717
  76.2431773  20.0453701  28.6208789  76.8376264  19.8049437  27.9102097
  76.3158356  19.3260831  29.2482325  58.4628928  33.8887312  28.9351953
  58.3283396  33.1287713  28.3689951  58.0460991  34.6128211  28.4680742
  69.5987891  29.0724235  17.9428529  70.3023742  29.2774238  18.5586184
  68.8750540  29.6400997  18.2077612  70.4285702  24.8234096  24.0630799
  70.3720903  25.2802648  23.2238431  70.9814044  24.0624781  23.8853642
  74.2390508  20.6123828  24.8880918  73.9827442  20.2120464  25.7189126
  73.6143376  21.3267622  24.7631058  78.5502845  23.3519902  27.3952210
  77.9902403  23.4213091  28.1683772  77.9446349  23.1760886  26.6751706
  61.6198054  34.7856629  29.1470396  61.5030438  35.7302061  29.0449086
  60.7990501  34.4830190  29.5356195  71.5074589  29.5106764  19.9926989
  72.3420193  29.0787963  19.8104464  71.3458932  29.3388778  20.9203883
  71.1620481  26.0138878  21.3583328  71.1069285  25.8483149  20.4171772
  70.5366536  26.7214911  21.5145518  55.9512996  21.2506942  35.1844750
  56.5971860  20.7405896  35.6731975  55.7430147  21.9875624  35.7588176
  68.4766388  28.3187790  40.6836891  69.3457548  28.4928442  40.3223526
  67.9973140  29.1382206  40.5612620  64.4716606  15.5146987  20.9368646
  64.4595276  16.4588827  21.0936917  65.3640028  15.3317132  20.6428108
  62.6452568  35.4384891  32.3626324  63.5479815  35.4708501  32.6792819
  62.4189938  34.5085341  32.3772660  64.4006170  34.1915877  29.0236403
  63.4501801  34.1917739  28.9100775  64.7038657  33.4448612  28.5072438
  68.2868726  12.1089763  25.1914583  67.5201122  11.5548250  25.3371266
  68.6979431  12.1811632  26.0528735  60.2910487  18.3974559  39.2819765
  61.1541949  18.0411364  39.4923089  59.7175898  18.0588454  39.9695169
  80.1358864  40.0276415  30.0882166  80.7737274  39.9083163  29.3845506
  80.0179707  40.9757259  30.1470118  76.9448570  39.9803844  30.0243690
  76.6067082  39.8644908  29.1364225  77.8138338  39.5795009  30.0044696
  72.8035386  41.8339320  26.0140581  72.2400251  41.7429257  25.2456869
  72.6887781  41.0139224  26.4943074  77.4268353  41.1338695  35.9829896
  77.4156994  40.7391494  35.1110399  77.5888993  40.4004768  36.5763667
  70.3499818  43.3290512  28.8524802  71.1421110  42.9881336  28.4371101
  70.5896468  43.4385487  29.7726955  78.3834945  45.5010288  21.3255046
  77.7322924  46.0864368  20.9389060  79.1779307  46.0316483  21.3850084
  72.3090572  42.5899425  21.7242180  73.0821448  42.0428412  21.5855056
  72.6615971  43.4543674  21.9356642  74.1475614  43.9175807  34.9309080
  73.8565480  44.8221438  34.8155746  74.7832599  43.9592335  35.6453149
  75.0731821  41.2952656  31.5210439  75.6695393  41.0708678  30.8067402
  75.1306793  40.5537401  32.1235887  74.6456850  38.7492091  19.3560630
  74.8982370  38.2273612  18.5944093  73.7081409  38.5858236  19.4587314
  79.6900132  37.7527869  27.1635374  80.4763222  37.3347292  26.8125791
  79.9538837  38.6573961  27.3317022  79.8610210  43.1900720  21.8624030
  79.2256043  43.2635346  22.5744935  79.5307616  43.7794318  21.1843110
  85.0908560  37.6903103  28.0668352  85.8233731  37.1202319  28.3006182
  84.3347915  37.3024703  28.5074858  74.3653138  40.6520197  21.5585005
  74.2489396  39.9765100  22.2266090  74.4755398  40.1652571  20.7417158
  76.7084679  40.1130344  25.2631695  76.3442886  39.5860965  25.9744616
  77.5651795  39.7228813  25.0898180  82.6133980  31.4024677  32.5262961
  82.2817305  32.2720088  32.3024176  82.0179593  31.0860961  33.2056991
  76.3490166  35.1420244  20.2593043  76.5164569  36.0100480  20.6263514
  76.1587335  35.3047525  19.3354332  79.1065499  43.6037223  31.9258873
  78.8066223  44.5062261  31.8174681  78.7616559  43.3369406  32.7780026
  72.5577981  40.0551019  27.9595578  71.6328477  39.9227234  28.1673270
  72.8062394  40.8345239  28.4565520  82.5062643  36.1219763  29.6056311
  81.5979521  36.0535171  29.3115072  82.4550239  36.5991708  30.4338136
  76.3279387  37.5977901  21.2439710  76.2079012  38.0434952  22.0825190
  75.6331975  37.9463219  20.6853248  69.9186792  39.6984293  28.7939367
  70.0479173  39.9518772  29.7078779  69.2384243  40.2912001  28.4744022
  74.0886279  50.3681543  24.8929841  74.0110309  51.3189368  24.9718322
  73.4847923  50.0227415  25.5504767  76.5803509  37.5409408  37.5491208
  75.8036843  38.1003329  37.5394073  77.2194072  38.0266191  38.0706078
  84.3724290  34.3236201  31.3834185  83.7298670  34.6168734  30.7373979
  83.8679218  34.2089122  32.1887381  82.0264453  38.0699374  22.0720044
  82.9382309  38.3026761  21.8967741  81.5174100  38.6536419  21.5095123
  74.8349881  40.3494862  37.1109175  75.5764566  40.8879906  36.8343999
  74.1286867  40.9761150  37.2680727  80.3105221  42.4924002  35.7081336
  80.7188577  42.0506413  34.9635969  79.5882482  41.9176630  35.9615529
  76.6636291  37.4296609  33.0814893  77.5097486  37.8536023  33.2249542
  76.6034929  36.7730233  33.7753457  80.6334036  43.0525193  29.4633625
  80.0042898  43.2170907  28.7609693  80.2459698  43.4666802  30.2344589
  84.5123267  43.9879631  26.8177989  83.8274306  44.3678532  26.2675022
  84.5967117  44.5974957  27.5509937  79.8135736  35.0900977  34.7396067
  79.5696668  35.8443038  34.2030343  80.0895667  35.4686325  35.5743314
  81.7674199  41.6339590  33.4173333  81.9791094  42.2771350  32.7407714
  81.7203947  40.8001906  32.9495263  79.3700428  34.2457410  30.3209905
  78.5084907  34.5438664  30.6126642  79.3962863  34.4627809  29.3890937
  76.1861997  42.7899601  26.7283710  76.6500343  43.0687304  25.9388333
  75.9218796  41.8883046  26.5456801  73.0786079  42.3371082  29.6663474
  73.6487436  42.7658351  29.0280958  73.6694190  42.0553667  30.3647659
  75.1230884  38.9122753  23.5373276  75.8254927  39.3643797  24.0047202
  74.7911512  38.2706572  24.1653169  73.5711245  37.5034510  37.9124485
  72.9409906  38.1850791  38.1459882  73.4647333  37.3917592  36.9677623
  68.8656217  37.1706306  28.8390409  68.0755271  37.4263834  28.3630520
  69.3567465  37.9854644  28.9442450  82.8820027  44.5111545  31.5895690
  83.7037471  44.1091732  31.3078372  82.8782430  44.4079779  32.5411806
  70.8170963  37.5350885  25.7973886  70.0202126  37.6469579  26.3157382
  70.5896555  37.8737537  24.9314776  76.6476630  44.0595588  33.7456401
  76.7121063  44.5215996  34.5814572  75.9387554  43.4292953  33.8738710
  67.1493920  37.4236796  31.2705400  67.4001959  38.3083806  31.5362976
  67.6853469  37.2441398  30.4980492  90.9726020  40.8550294  27.9380661
  90.2189728  40.2857692  27.7824666  91.1073561  40.8212958  28.8851296
  76.3624648  45.7263696  23.6135381  76.2270323  46.5715232  24.0420229
  76.9034461  45.9282974  22.8501315  72.8491988  31.8055276  40.2749736
  72.4558933  31.2521474  40.9497380  73.6658128  32.1165854  40.6656254
  69.8154046  43.2439134  24.1863306  70.3278566  44.0382384  24.3368871
  70.4676758  42.5465424  24.1196907  71.6248930  46.3604890  26.2686059
  71.8015559  47.2822855  26.0807043  72.4205764  46.0463309  26.6980439
  75.7659949  33.2213155  37.8669993  76.5069662  33.8220308  37.7874455
  75.9977872  32.4790793  37.3088035  70.9101287  38.4069522  36.1448222
  70.7954802  37.5054779  36.4455321  70.0545805  38.6533219  35.7933039
  77.9893125  46.3487262  37.7435723  77.5456979  45.5623641  37.4256627
  78.6510338  46.5366413  37.0779614  72.7480246  47.8783064  32.2696401
  73.2987671  47.7500127  31.4973395  71.9091722  48.1777953  31.9191294
  80.0874363  46.6290062  35.7717124  80.0692838  47.4498943  35.2797393
  81.0094283  46.5044138  35.9967265  76.5447417  44.1434192  36.6140633
  77.0775754  43.3822480  36.3839941  76.0161498  43.8507844  37.3564787
  79.7117112  29.2494258  32.1434274  79.3681381  30.1395899  32.0673385
  80.0796074  29.0595915  31.2803859  67.7802962  41.5727788  24.9622876
  68.6178184  41.9824797  24.7456584  67.9581230  40.6327230  24.9323070
  79.6767394  39.2402869  20.6506709  79.1614018  40.0107474  20.8895097
  79.4044703  38.5668005  21.2739771  77.2614505  34.0852570  25.7091948
  76.4056102  33.6959420  25.5297586  77.6741457  34.1644530  24.8491733
  78.7913652  31.6198913  30.1083508  78.2878448  31.5829048  29.2951313
  79.0844259  32.5291656  30.1680164  75.0356538  31.7037643  29.1149689
  75.9009535  31.5080451  28.7555579  75.1034047  31.4747994  30.0419046
  84.6501669  41.9935224  22.5859883  83.8731111  41.6546383  22.1415045
  85.3293150  41.9987847  21.9114848  79.4653698  37.1129961  22.4766491
  79.1603833  37.4276110  23.3276634  80.4184140  37.1911381  22.5193824
  77.9100129  43.2720184  24.1259445  77.3821491  42.5372944  23.8132682
  77.4087632  44.0494861  23.8799413  82.8892975  41.4669205  29.2426491
  82.2316650  42.1568466  29.3306619  83.6933375  41.8565637  29.5860477
  72.6418857  33.9339851  26.4866056  73.2162609  33.7115032  25.7539249
  73.2289839  34.0028545  27.2394657  81.6998434  39.8213577  27.2930433
  82.2130316  40.4543569  27.7952142  82.3499658  39.2214773  26.9273793
  72.9688444  35.9644312  20.5061941  72.1325756  36.3018998  20.8271216
  72.8293214  35.8293291  19.5689078  74.9441525  30.8081099  25.2141126
  74.2905937  30.4930117  24.5897740  74.9021999  30.1856840  25.9400948
  76.0552730  41.0900395  17.1294418  75.1479791  40.8589648  17.3285567
  76.5523762  40.2938014  17.3168399  78.9620809  49.7997902  20.0491104
  78.2882507  50.1029599  20.6576062  79.3486630  50.6026982  19.6996561
  78.1779265  37.2963033  29.5388773  77.2601826  37.5177980  29.3810461
  78.5939409  37.3709344  28.6800480  78.9614313  38.6954449  24.6691453
  79.7086132  39.2075846  24.3598575  79.2305902  38.3738501  25.5295847
  77.2340963  41.1912989  21.6518408  76.3252182  40.9072022  21.7490877
  77.2636047  41.6112068  20.7921715  82.4660230  44.8019579  25.4209575
  82.0122558  43.9610489  25.4774766  81.8354197  45.4380977  25.7584355
  81.4093150  35.7311565  26.6510243  80.6715907  35.2188951  26.9820485
  81.6619924  35.2911947  25.8393520  80.9093170  46.6396076  26.3559393
  81.2016144  47.2001133  25.6371759  81.4191790  46.9324637  27.1112552
  81.5104777  28.5087817  27.2452012  81.8163654  27.6485180  26.9577927
  82.2357382  29.1005437  27.0451006  67.8029133  38.9118504  25.6333610
  67.6053533  38.3187864  24.9084676  67.2475797  38.6070714  26.3509549
  75.7825857  38.8041610  27.7528203  75.8374467  37.8515446  27.6770680
  74.9717059  38.9601049  28.2369501  76.9317051  42.7321733  18.9906486
  76.4936481  42.0157592  18.5312124  77.6727492  42.9597848  18.4291578
  73.7218217  37.4218670  25.5118582  72.9086083  37.7212840  25.9183774
  74.2177211  37.0274359  26.2293064  75.8726795  47.4176427  27.4452847
  75.8302974  47.6437273  26.5161379  76.7889494  47.1839801  27.5938648
  79.3192429  37.8860494  34.3433476  79.6741816  38.1131967  35.2027942
  79.9664560  38.2178871  33.7210731  85.0490166  41.0078930  25.0482805
  84.9108064  41.1980526  24.1203994  84.6926384  41.7698313  25.5050856
  73.2132292  34.9937025  31.1279817  73.8531671  34.8525784  30.4302780
  72.3809822  34.7071539  30.7518419  85.0759545  43.0755457  30.0594076
  85.5096052  42.9830746  30.9077130  85.7891126  43.0512958  29.4214092
  73.9892596  44.2939456  27.2414809  74.7833194  43.7989776  27.0397384
  73.2784288  43.7657319  26.8782515  78.8087440  46.6757551  31.5927177
  78.8624462  47.2448488  32.3604893  77.9402222  46.8459436  31.2281214
  70.2975359  38.4382537  23.3174562  69.3672947  38.3766993  23.5344524
  70.3932831  37.9158490  22.5211203  70.2160908  34.9637350  25.9052804
  70.4767725  35.8782684  25.7961964  71.0378081  34.4961793  26.0549416
  71.6885834  36.3775107  33.0751628  72.3608887  36.1692470  32.4264277
  70.8615620  36.1797193  32.6356860  85.9375095  43.1179158  32.5926962
  86.1310985  44.0224968  32.8386237  85.8375713  42.6586577  33.4265547
  77.5911406  33.0037048  35.0917289  76.9439321  33.7026998  34.9981765
  78.3612421  33.4373192  35.4593537  80.9990203  43.2685901  38.1667842
  80.8475710  43.0396452  37.2497926  80.9894883  44.2256502  38.1799187
  77.7675540  40.8417813  33.1514109  78.6967600  40.9928973  32.9783076
  77.3466570  40.9301834  32.2962755  76.5663872  44.8668478  30.9212646
  76.4274957  44.4987262  31.7938585  75.7778468  45.3816117  30.7496604
  77.1612024  49.9677574  22.2638183  77.3363779  49.4965617  23.0783806
  76.4744812  50.5943340  22.4919444  78.1169087  44.2450080  28.3101484
  77.7818919  44.2050850  29.2059134  77.6173033  43.5794796  27.8371894
  72.0913331  39.6517710  33.8354065  71.9533129  38.9197949  34.4365604
  73.0018254  39.5626611  33.5538253  81.0528278  41.5906115  18.5838544
  80.4357449  40.8652943  18.4871597  80.5844767  42.3515475  18.2405618
  74.7195631  39.3637670  33.3237745  75.4295250  38.7230862  33.2824363
  74.6764940  39.6150565  34.2463926  82.7082410  46.3005023  36.2444324
  82.6494956  45.6164243  35.5774907  83.1101929  47.0424013  35.7924950
  73.4324565  36.3502888  35.1433384  72.8961922  35.8993626  35.7954981
  72.8441274  36.4848796  34.4003849  71.7273109  53.1166937  29.0378043
  71.9669707  53.7485461  29.7157062  70.8842305  52.7654977  29.3243402
  72.8426824  35.8091539  17.7059848  71.9656291  35.6880340  17.3422095
  73.3184577  35.0177617  17.4538737  82.7099817  44.2644607  34.4758304
  81.8226596  43.9270529  34.5984703  83.2798368  43.5327638  34.7127069
  64.3628965  40.5968699  27.8001355  65.0500004  40.2830429  27.2122371
  64.2077093  41.5010063  27.5268607  69.1663687  35.4858895  32.2286379
  69.0821875  34.8784565  31.4936789  68.3446393  35.9767914  32.2295875
  76.2400971  48.9246059  31.4419547  76.1671142  49.7301031  31.9538852
  75.7978364  49.1238025  30.6167568  76.0290750  48.1617829  24.9522369
  75.2458272  48.7039510  25.0460593  76.7283496  48.6791809  25.3516610
  79.3387401  33.9712459  27.5956574  79.8356100  33.2182421  27.2757644
  78.5674382  34.0076776  27.0299783  87.1917158  39.6752824  29.2374866
  87.1807034  40.5577540  28.8668799  86.3234537  39.3224375  29.0429403
  78.6999654  48.8232893  33.5977706  79.4127627  49.4580358  33.5253607
  78.2089683  48.9196759  32.7817708  80.4217181  42.7284146  25.1694997
  79.4873460  42.8485609  24.9999702  80.5993850  41.8256613  24.9055007
  75.9222369  36.1129842  27.3228259  75.5520157  35.5600882  28.0109164
  76.4181462  35.5087975  26.7703259  83.8089733  38.5701465  25.7045032
  84.2750185  39.4029457  25.6305334  84.2597233  38.1046447  26.4090290
  73.7511568  46.5727337  34.4183277  74.4521027  47.2063820  34.5712671
  73.2806683  46.9142068  33.6578916  81.8765964  44.9145287  22.7031184
  82.1525808  44.8001881  23.6125058  81.0070462  44.5162772  22.6643357
  81.7806395  30.9382052  29.7435933  80.8669475  31.1686279  29.9118140
  82.2099497  31.0220496  30.5949965  81.5512854  39.1271944  32.2435827
  80.8984304  39.3747852  31.5888280  81.9293234  38.3136083  31.9098304
  78.5120028  49.1631638  26.3463997  78.6942422  48.3453293  26.8091750
  79.3353014  49.3799330  25.9088887  78.8462193  48.0899823  23.6079046
  79.3749960  47.5792277  22.9949208  79.1090413  47.7742353  24.4724579
  77.6000427  39.8691755  38.7301864  76.9241064  39.7685885  39.4004239
  78.4228061  39.7130969  39.1937861  69.3479286  46.1063692  31.3514379
  69.9332723  45.3607380  31.4842283  69.1504124  46.4167649  32.2351043
  72.2017941  49.1414939  26.3676822  71.5328316  49.6261067  25.8840862
  72.0630811  49.3884160  27.2820200  63.9396941  38.6769292  30.0718822
  63.9781040  38.1432883  30.8655940  63.4337233  38.1504498  29.4529800
  76.3423210  51.1758683  32.9659480  76.8941518  51.3390304  33.7308565
  76.6829403  51.7663121  32.2939505  71.3187703  33.5233833  33.5681365
  71.3829029  34.3848664  33.1558762  71.2554823  32.9107834  32.8353723
  70.7939975  35.5956965  37.2154399  71.4212014  35.2134043  37.8291923
  69.9367894  35.3771167  37.5810091  81.1934084  46.0019940  38.8208134
  81.7373988  46.6149899  38.3263089  80.6120929  46.5599519  39.3375147
  67.5705518  37.4033394  23.1472754  67.8658959  36.4944073  23.0939807
  66.6693554  37.3821134  22.8253756  79.4791597  49.1240658  29.9523162
  79.3542736  48.3230398  29.4434108  80.1370688  49.6186852  29.4637132
  71.0999765  35.4789391  29.1300302  70.3786351  36.0925359  28.9907776
  71.8893021  36.0147156  29.0516948  81.5426505  46.9249678  31.5802712
  80.5956841  46.8055030  31.5081039  81.8909278  46.0372177  31.6628974
  73.9026079  32.8143817  35.4040954  74.4260481  33.0606114  36.1667263
  73.6838412  33.6463852  34.9844091  69.2993360  35.0847492  23.2712079
  68.9706066  34.2044871  23.0887185  69.6532731  35.0295161  24.1588468
  78.5472939  46.7202395  27.7807064  78.3997901  45.7919102  27.9614635
  79.3726432  46.7422485  27.2964140  72.4135183  35.3720462  23.6387557
  72.7531255  35.9006383  22.9166165  72.8607303  35.7100868  24.4146123
  82.1507061  47.5430953  28.8671937  83.0753608  47.3373815  28.7296388
  81.9822364  47.2947355  29.7761279  75.1078624  33.7557512  33.0890625
  74.7675444  32.9565326  33.4911305  74.4017630  34.0559223  32.5167458
  75.7595096  30.8406825  31.5417948  76.5821165  30.3667303  31.4196838
  76.0033159  31.6197309  32.0416634  74.4003330  33.8695083  21.8380849
  75.1211693  34.2476336  21.3344566  73.7768634  34.5883960  21.9415827
  78.5434453  34.5740232  22.7739182  78.7598067  35.4564870  22.4728010
  78.0628520  34.1826446  22.0444824  73.2833674  37.5325946  29.3509926
  73.1378255  37.8466249  30.2434208  72.8058878  38.1510846  28.7980825
  75.1430057  34.5228494  29.3990816  75.1291626  33.6269587  29.0623114
  75.8602485  34.5299157  30.0329102  76.9956188  34.9565834  31.4443943
  76.7373966  35.8782904  31.4428274  76.4641228  34.5596268  32.1344407
  81.9402377  48.0616621  24.2234029  82.1139254  47.4963043  23.4707881
  82.4331268  48.8617516  24.0413519  67.7579337  40.0731290  32.2897587
  67.2132805  40.8491098  32.4217862  68.6358686  40.4202094  32.1316709
  74.5466953  33.4042874  24.6678386  74.6682864  32.4759520  24.8669274
  74.2568996  33.4181560  23.7556701  77.4158144  31.0897784  27.8045106
  77.4379840  31.1537117  26.8497085  77.8326203  30.2502293  27.9985612
  87.7941768  40.8253044  25.8424328  88.2372914  40.0760369  25.4443452
  86.9168278  40.8163180  25.4598060  82.9277549  47.3783385  21.3230927
  83.6228454  47.9990078  21.5418242  83.2700699  46.5278736  21.5983305
  68.5445358  39.2001186  35.1827744  67.8027094  39.3483822  35.7692375
  68.2238103  39.4609452  34.3194494  84.8268972  44.8283091  22.8518258
  85.3520296  45.1670364  22.1267578  84.7391325  43.8930106  22.6681392
  76.4889021  48.7417164  34.9808134  76.7976147  48.4966311  35.8530834
  77.2864503  48.9463803  34.4927005  76.5109633  50.8955074  27.2113511
  76.0714623  50.4031453  27.9046368  77.2617750  50.3528042  26.9705586
  68.9901972  47.0866615  27.2138139  69.8159992  46.7870387  26.8336783
  68.6396024  46.3174237  27.6627928  73.9583505  46.4393083  29.2835813
  73.3363515  45.7763788  28.9838040  74.6288372  46.4654215  28.6009460
  67.1910577  45.0052941  28.1727073  66.3542485  44.5775116  27.9911074
  67.1634223  45.1985385  29.1097864  74.0308033  34.9174871  38.8768319
  74.0796188  35.7936994  38.4946088  74.5730547  34.3752264  38.3039962
  84.5162878  45.4615994  38.1569456  83.7258422  45.4440133  37.6173955
  84.2796233  46.0004288  38.9118492  84.6360753  42.3108461  35.4702184
  84.6858758  42.1458468  36.4117707  84.5274677  41.4435720  35.0800065
  73.5197012  44.9897007  22.7594273  73.6685133  45.6732471  22.1060946
  74.3263456  44.9702097  23.2743729  81.9264516  38.2939389  36.7861491
  82.8274379  38.1545854  36.4945489  82.0012490  38.4593844  37.7259668
  76.2607321  35.6706244  35.6314677  75.3910631  35.9639810  35.3597266
  76.4966802  36.2546689  36.3521941  86.1378950  44.7305402  35.7144206
  85.8463759  45.0935383  36.5507667  85.5251082  44.0172411  35.5357538
  87.3374633  42.2958282  28.2346776  88.1721524  42.7348086  28.3984336
  87.4733761  41.8196935  27.4155022  84.3866139  39.8538017  34.1824264
  84.8620260  40.0465663  33.3743115  83.4631704  39.9097203  33.9367647
  71.2749645  41.0162184  23.7655342  71.0295687  40.1124514  23.9635552
  71.4445560  41.0179335  22.8234820  78.9646355  31.8885861  33.1480098
  79.4828299  32.6246887  32.8226586  78.6101488  32.1949854  33.9826857
  70.5445293  36.7490542  21.2641503  69.8514538  36.8234897  20.6081539
  70.2997045  35.9850885  21.7863020  79.2158949  28.3086143  28.6680994
  79.4960703  27.6409332  29.2941421  80.0009556  28.5015239  28.1555658
  77.0192418  47.4845137  20.2306021  76.4466385  48.1035324  19.7776492
  77.5925211  48.0344499  20.7645942  83.0867808  36.7303777  32.4152569
  84.0385230  36.8301875  32.4364793  82.9171258  35.9382046  32.9250654
  81.1082187  33.8159360  32.6011970  80.5132119  34.0964373  31.9058459
  80.8231884  34.3053261  33.3728711  80.2389677  47.7682287  21.3614603
  81.1720351  47.7027849  21.5647478  80.1512890  48.6038554  20.9029135
  82.8677694  47.0848157  18.3218550  82.7891326  46.7508021  19.2154308
  83.6887361  47.5769925  18.3210023  85.5655885  39.9509897  31.5294869
  85.5332205  39.0125897  31.7154553  86.1756509  40.0293933  30.7960694
  77.4039216  38.8205950  17.5722073  78.3498321  38.6912158  17.6410491
  77.0253461  38.0820612  18.0491501  85.7150374  36.7420940  31.5753152
  85.1989422  35.9579397  31.3883081  86.5990322  36.4139657  31.7399672
  83.3761101  30.4861956  27.5348965  83.1785922  30.1777044  28.4192297
  83.9860806  31.2123595  27.6646895  91.3832435  41.0125904  30.6700906
  92.1135824  40.7511192  31.2308609  90.7739381  40.2754626  30.7102974
  89.4647732  39.1533766  31.2675357  88.7380896  39.0189731  30.6591849
  89.0495019  39.4610595  32.0732075  77.2877909  42.8723696  39.0322730
  78.2080918  43.0502295  39.2262777  77.2527492  41.9279741  38.8802429
  75.5882133  36.7455926  17.5076958  74.6813589  36.4489039  17.5839672
  75.8658114  36.4485744  16.6411245  66.5060074  38.0662290  27.9576005
  66.1862858  37.2127598  27.6650379  65.9593502  38.2810868  28.7133972
  70.2839981  40.7824731  31.6745511  70.5025991  41.7141838  31.6933545
  70.6965755  40.4232705  32.4600315  77.2044199  31.2892816  23.6621200
  76.3944927  30.9439901  24.0376446  77.8928616  30.9800360  24.2508811
  79.1334747  30.3670863  25.2845496  79.6865786  30.7866316  25.9435519
  79.3704834  29.4406611  25.3268452  75.1567847  36.3557936  41.0648260
  75.0564573  37.3052293  40.9960351  74.9389389  36.0276175  40.1924330
  74.3580918  33.6042861  17.6488937  75.2200082  33.9297760  17.9084755
  74.5431262  32.8174357  17.1362003  66.3748334  41.6865201  29.9269126
  65.6811805  41.2719154  29.4139081  67.1221325  41.7285738  29.3302545
  82.5113554  32.4771388  24.7924160  81.9312223  33.1356192  24.4102213
  82.2449487  31.6548732  24.3811578  80.9617121  31.8776445  26.9945481
  81.4616899  31.9892980  26.1859800  81.6052729  31.5737498  27.6346289
  75.0199117  39.7855075  39.8813322  74.5366198  40.5855435  40.0877211
  75.1060056  39.7963020  38.9280766  68.2885076  41.6183455  27.8035141
  68.2655764  41.7171142  26.8517024  68.5985713  42.4648606  28.1252307
  70.9472454  43.6759610  31.9181756  71.9015708  43.6443552  31.8511687
  70.7484978  43.2150234  32.7331981  71.5371836  42.2460726  34.4852553
  72.3564725  42.7404805  34.5087390  71.8108644  41.3292694  34.4570121
  81.2938432  34.6371478  23.8480509  80.4064287  34.9221129  23.6300703
  81.7092422  34.4765242  23.0007786  84.6452969  34.6617999  27.5634848
  85.4213359  35.1514452  27.8359465  83.9201103  35.0876053  28.0206717
  87.0825527  35.3745618  28.6208789  87.6770018  35.1341354  27.9102097
  87.1552111  34.6552749  29.2482325  69.3022683  49.2179229  28.9351953
  69.1677151  48.4579630  28.3689951  68.8854745  49.9420129  28.4680742
  80.4381646  44.4016153  17.9428529  81.1417496  44.6066155  18.5586184
  79.7144295  44.9692915  18.2077612  81.2679456  40.1526014  24.0630799
  81.2114658  40.6094566  23.2238431  81.8207799  39.3916699  23.8853642
  85.0784262  35.9415746  24.8880918  84.8221196  35.5412382  25.7189126
  84.4537130  36.6559540  24.7631058  89.3896600  38.6811819  27.3952210
  88.8296158  38.7505009  28.1683772  88.7840103  38.5052804  26.6751706
  72.4591809  50.1148546  29.1470396  72.3424193  51.0593979  29.0449086
  71.6384255  49.8122108  29.5356195  82.3468343  44.8398682  19.9926989
  83.1813947  44.4079881  19.8104464  82.1852686  44.6680696  20.9203883
  82.0014236  41.3430795  21.3583328  81.9463039  41.1775067  20.4171772
  81.3760291  42.0506828  21.5145518  66.7906750  36.5798860  35.1844750
  67.4365614  36.0697814  35.6731975  66.5823902  37.3167541  35.7588176
  79.3160143  43.6479707  40.6836891  80.1851302  43.8220359  40.3223526
  78.8366894  44.4674124  40.5612620  75.3110361  30.8438904  20.9368646
  75.2989031  31.7880744  21.0936917  76.2033783  30.6609050  20.6428108
  73.4846323  50.7676808  32.3626324  74.3873570  50.8000418  32.6792819
  73.2583693  49.8377259  32.3772660  75.2399925  49.5207795  29.0236403
  74.2895556  49.5209656  28.9100775  75.5432411  48.7740529  28.5072438
  79.1262480  27.4381681  25.1914583  78.3594876  26.8840168  25.3371266
  79.5373185  27.5103550  26.0528735  71.1304241  33.7266477  39.2819765
  71.9935703  33.3703282  39.4923089  70.5569652  33.3880372  39.9695169
  90.9752618  55.3568333  30.0882166  91.6131028  55.2375080  29.3845506
  90.8573461  56.3049177  30.1470118  87.7842325  55.3095761  30.0243690
  87.4460836  55.1936826  29.1364225  88.6532093  54.9086926  30.0044696
  83.6429140  57.1631238  26.0140581  83.0794006  57.0721175  25.2456869
  83.5281535  56.3431142  26.4943074  88.2662108  56.4630613  35.9829896
  88.2550748  56.0683411  35.1110399  88.4282747  55.7296686  36.5763667
  81.1893572  58.6582429  28.8524802  81.9814864  58.3173254  28.4371101
  81.4290222  58.7677404  29.7726955  89.2228699  60.8302205  21.3255046
  88.5716679  61.4156286  20.9389060  90.0173062  61.3608400  21.3850084
  83.1484326  57.9191343  21.7242180  83.9215202  57.3720330  21.5855056
  83.5009725  58.7835592  21.9356642  84.9869369  59.2467725  34.9309080
  84.6959235  60.1513356  34.8155746  85.6226353  59.2884252  35.6453149
  85.9125576  56.6244573  31.5210439  86.5089148  56.4000596  30.8067402
  85.9700547  55.8829319  32.1235887  85.4850604  54.0784009  19.3560630
  85.7376125  53.5565530  18.5944093  84.5475163  53.9150154  19.4587314
  90.5293887  53.0819787  27.1635374  91.3156976  52.6639210  26.8125791
  90.7932591  53.9865879  27.3317022  90.7003964  58.5192637  21.8624030
  90.0649797  58.5927264  22.5744935  90.3701371  59.1086236  21.1843110
  95.9302314  53.0195020  28.0668352  96.6627486  52.4494237  28.3006182
  95.1741670  52.6316621  28.5074858  85.2046893  55.9812115  21.5585005
  85.0883151  55.3057018  22.2266090  85.3149153  55.4944489  20.7417158
  87.5478434  55.4422262  25.2631695  87.1836641  54.9152883  25.9744616
  88.4045550  55.0520731  25.0898180  93.4527734  46.7316594  32.5262961
  93.1211059  47.6012005  32.3024176  92.8573348  46.4152878  33.2056991
  87.1883921  50.4712161  20.2593043  87.3558323  51.3392398  20.6263514
  86.9981090  50.6339443  19.3354332  89.9459254  58.9329140  31.9258873
  89.6459977  59.8354179  31.8174681  89.6010313  58.6661324  32.7780026
  83.3971735  55.3842937  27.9595578  82.4722232  55.2519151  28.1673270
  83.6456149  56.1637156  28.4565520  93.3456398  51.4511680  29.6056311
  92.4373275  51.3827089  29.3115072  93.2943993  51.9283625  30.4338136
  87.1673142  52.9269819  21.2439710  87.0472767  53.3726870  22.0825190
  86.4725730  53.2755137  20.6853248  80.7580546  55.0276211  28.7939367
  80.8872928  55.2810690  29.7078779  80.0777998  55.6203919  28.4744022
  84.9280034  65.6973461  24.8929841  84.8504063  66.6481286  24.9718322
  84.3241677  65.3519333  25.5504767  87.4197263  52.8701326  37.5491208
  86.6430598  53.4295246  37.5394073  88.0587827  53.3558109  38.0706078
  95.2118044  49.6528119  31.3834185  94.5692424  49.9460652  30.7373979
  94.7072973  49.5381039  32.1887381  92.8658208  53.3991292  22.0720044
  93.7776064  53.6318679  21.8967741  92.3567855  53.9828336  21.5095123
  85.6743636  55.6786779  37.1109175  86.4158320  56.2171823  36.8343999
  84.9680621  56.3053068  37.2680727  91.1498975  57.8215920  35.7081336
  91.5582331  57.3798330  34.9635969  90.4276237  57.2468547  35.9615529
  87.5030045  52.7588527  33.0814893  88.3491241  53.1827940  33.2249542
  87.4428683  52.1022151  33.7753457  91.4727790  58.3817111  29.4633625
  90.8436653  58.5462825  28.7609693  91.0853452  58.7958720  30.2344589
  95.3517022  59.3171548  26.8177989  94.6668060  59.6970450  26.2675022
  95.4360871  59.9266875  27.5509937  90.6529491  50.4192895  34.7396067
  90.4090423  51.1734956  34.2030343  90.9289421  50.7978243  35.5743314
  92.6067954  56.9631507  33.4173333  92.8184849  57.6063267  32.7407714
  92.5597702  56.1293824  32.9495263  90.2094183  49.5749328  30.3209905
  89.3478662  49.8730582  30.6126642  90.2356617  49.7919727  29.3890937
  87.0255752  58.1191519  26.7283710  87.4894097  58.3979222  25.9388333
  86.7612550  57.2174963  26.5456801  83.9179833  57.6663000  29.6663474
  84.4881190  58.0950269  29.0280958  84.5087945  57.3845585  30.3647659
  85.9624638  54.2414671  23.5373276  86.6648681  54.6935715  24.0047202
  85.6305266  53.5998490  24.1653169  84.4105000  52.8326428  37.9124485
  83.7803660  53.5142708  38.1459882  84.3041087  52.7209509  36.9677623
  79.7049972  52.4998224  28.8390409  78.9149026  52.7555752  28.3630520
  80.1961219  53.3146561  28.9442450  93.7213782  59.8403463  31.5895690
  94.5431225  59.4383650  31.3078372  93.7176184  59.7371697  32.5411806
  81.6564717  52.8642803  25.7973886  80.8595881  52.9761497  26.3157382
  81.4290310  53.2029455  24.9314776  87.4870385  59.3887506  33.7456401
  87.5514817  59.8507913  34.5814572  86.7781309  58.7584871  33.8738710
  77.9887675  52.7528714  31.2705400  78.2395713  53.6375724  31.5362976
  78.5247223  52.5733316  30.4980492 101.8119775  56.1842211  27.9380661
 101.0583483  55.6149609  27.7824666 101.9467316  56.1504876  28.8851296
  87.2018403  61.0555614  23.6135381  87.0664077  61.9007149  24.0420229
  87.7428215  61.2574891  22.8501315  83.6885742  47.1347193  40.2749736
  83.2952688  46.5813392  40.9497380  84.5051883  47.4457772  40.6656254
  80.6547800  58.5731052  24.1863306  81.1672321  59.3674302  24.3368871
  81.3070513  57.8757342  24.1196907  82.4642685  61.6896808  26.2686059
  82.6409313  62.6114773  26.0807043  83.2599518  61.3755227  26.6980439
  86.6053703  48.5505073  37.8669993  87.3463417  49.1512226  37.7874455
  86.8371626  47.8082710  37.3088035  81.7495041  53.7361440  36.1448222
  81.6348556  52.8346697  36.4455321  80.8939559  53.9825137  35.7933039
  88.8286879  61.6779180  37.7435723  88.3850733  60.8915559  37.4256627
  89.4904093  61.8658331  37.0779614  83.5874000  63.2074982  32.2696401
  84.1381425  63.0792045  31.4973395  82.7485476  63.5069871  31.9191294
  90.9268117  61.9581980  35.7717124  90.9086592  62.7790861  35.2797393
  91.8488037  61.8336055  35.9967265  87.3841171  59.4726110  36.6140633
  87.9169508  58.7114398  36.3839941  86.8555252  59.1799761  37.3564787
  90.5510866  44.5786175  32.1434274  90.2075136  45.4687817  32.0673385
  90.9189829  44.3887833  31.2803859  78.6196717  56.9019706  24.9622876
  79.4571939  57.3116714  24.7456584  78.7974984  55.9619148  24.9323070
  90.5161149  54.5694787  20.6506709  90.0007772  55.3399391  20.8895097
  90.2438457  53.8959923  21.2739771  88.1008260  49.4144487  25.7091948
  87.2449856  49.0251338  25.5297586  88.5135212  49.4936448  24.8491733
  89.6307407  46.9490831  30.1083508  89.1272202  46.9120966  29.2951313
  89.9238013  47.8583573  30.1680164  85.8750292  47.0329560  29.1149689
  86.7403289  46.8372369  28.7555579  85.9427801  46.8039912  30.0419046
  95.4895423  57.3227141  22.5859883  94.7124866  56.9838301  22.1415045
  96.1686904  57.3279764  21.9114848  90.3047452  52.4421879  22.4766491
  89.9997588  52.7568028  23.3276634  91.2577894  52.5203299  22.5193824
  88.7493884  58.6012102  24.1259445  88.2215246  57.8664862  23.8132682
  88.2481387  59.3786778  23.8799413  93.7286730  56.7961122  29.2426491
  93.0710404  57.4860384  29.3306619  94.5327129  57.1857554  29.5860477
  83.4812612  49.2631768  26.4866056  84.0556363  49.0406950  25.7539249
  84.0683594  49.3320463  27.2394657  92.5392189  55.1505495  27.2930433
  93.0524070  55.7835487  27.7952142  93.1893413  54.5506691  26.9273793
  83.8082199  51.2936229  20.5061941  82.9719511  51.6310916  20.8271216
  83.6686968  51.1585209  19.5689078  85.7835279  46.1373017  25.2141126
  85.1299692  45.8222034  24.5897740  85.7415753  45.5148758  25.9400948
  86.8946484  56.4192312  17.1294418  85.9873546  56.1881566  17.3285567
  87.3917516  55.6229932  17.3168399  89.8014563  65.1289819  20.0491104
  89.1276262  65.4321516  20.6576062  90.1880385  65.9318900  19.6996561
  89.0173020  52.6254951  29.5388773  88.0995581  52.8469898  29.3810461
  89.4333163  52.7001261  28.6800480  89.8008067  54.0246366  24.6691453
  90.5479886  54.5367764  24.3598575  90.0699657  53.7030419  25.5295847
  88.0734718  56.5204907  21.6518408  87.1645937  56.2363940  21.7490877
  88.1029801  56.9403986  20.7921715  93.3053985  60.1311497  25.4209575
  92.8516312  59.2902407  25.4774766  92.6747952  60.7672895  25.7584355
  92.2486905  51.0603483  26.6510243  91.5109661  50.5480869  26.9820485
  92.5013678  50.6203864  25.8393520  91.7486924  61.9687993  26.3559393
  92.0409899  62.5293050  25.6371759  92.2585545  62.2616554  27.1112552
  92.3498532  43.8379735  27.2452012  92.6557409  42.9777098  26.9577927
  93.0751137  44.4297355  27.0451006  78.6422888  54.2410421  25.6333610
  78.4447288  53.6479782  24.9084676  78.0869552  53.9362631  26.3509549
  86.6219612  54.1333528  27.7528203  86.6768221  53.1807364  27.6770680
  85.8110814  54.2892967  28.2369501  87.7710805  58.0613651  18.9906486
  87.3330235  57.3449510  18.5312124  88.5121246  58.2889766  18.4291578
  84.5611972  52.7510587  25.5118582  83.7479837  53.0504758  25.9183774
  85.0570966  52.3566276  26.2293064  86.7120549  62.7468344  27.4452847
  86.6696728  62.9729191  26.5161379  87.6283248  62.5131719  27.5938648
  90.1586183  53.2152412  34.3433476  90.5135571  53.4423885  35.2027942
  90.8058314  53.5470789  33.7210731  95.8883920  56.3370848  25.0482805
  95.7501819  56.5272444  24.1203994  95.5320139  57.0990231  25.5050856
  84.0526046  50.3228943  31.1279817  84.6925426  50.1817702  30.4302780
  83.2203577  50.0363456  30.7518419  95.9153300  58.4047375  30.0594076
  96.3489806  58.3122664  30.9077130  96.6284880  58.3804875  29.4214092
  84.8286350  59.6231373  27.2414809  85.6226949  59.1281694  27.0397384
  84.1178043  59.0949237  26.8782515  89.6481195  62.0049469  31.5927177
  89.7018217  62.5740405  32.3604893  88.7795976  62.1751354  31.2281214
  81.1369114  53.7674455  23.3174562  80.2066702  53.7058911  23.5344524
  81.2326586  53.2450408  22.5211203  81.0554663  50.2929268  25.9052804
  81.3161480  51.2074601  25.7961964  81.8771835  49.8253711  26.0549416
  82.5279588  51.7067025  33.0751628  83.2002641  51.4984387  32.4264277
  81.7009375  51.5089111  32.6356860  96.7768849  58.4471075  32.5926962
  96.9704739  59.3516886  32.8386237  96.6769467  57.9878495  33.4265547
  88.4305160  48.3328966  35.0917289  87.7833075  49.0318916  34.9981765
  89.2006175  48.7665110  35.4593537  91.8383958  58.5977818  38.1667842
  91.6869464  58.3688370  37.2497926  91.8288637  59.5548420  38.1799187
  88.6069294  56.1709731  33.1514109  89.5361354  56.3220891  32.9783076
  88.1860324  56.2593752  32.2962755  87.4057626  60.1960395  30.9212646
  87.2668712  59.8279180  31.7938585  86.6172222  60.7108035  30.7496604
  88.0005778  65.2969492  22.2638183  88.1757534  64.8257535  23.0783806
  87.3138566  65.9235258  22.4919444  88.9562841  59.5741998  28.3101484
  88.6212674  59.5342768  29.2059134  88.4566787  58.9086714  27.8371894
  82.9307085  54.9809628  33.8354065  82.7926883  54.2489867  34.4365604
  83.8412009  54.8918528  33.5538253  91.8922033  56.9198032  18.5838544
  91.2751204  56.1944861  18.4871597  91.4238521  57.6807393  18.2405618
  85.5589386  54.6929587  33.3237745  86.2689004  54.0522780  33.2824363
  85.5158694  54.9442482  34.2463926  93.5476165  61.6296941  36.2444324
  93.4888711  60.9456161  35.5774907  93.9495683  62.3715931  35.7924950
  84.2718320  51.6794805  35.1433384  83.7355677  51.2285544  35.7954981
  83.6835028  51.8140714  34.4003849  82.5666863  68.4458855  29.0378043
  82.8063462  69.0777379  29.7157062  81.7236060  68.0946895  29.3243402
  83.6820579  51.1383457  17.7059848  82.8050045  51.0172258  17.3422095
  84.1578332  50.3469535  17.4538737  93.5493572  59.5936525  34.4758304
  92.6620351  59.2562447  34.5984703  94.1192123  58.8619556  34.7127069
  75.2022719  55.9260616  27.8001355  75.8893759  55.6122347  27.2122371
  75.0470848  56.8301981  27.5268607  80.0057441  50.8150813  32.2286379
  79.9215630  50.2076483  31.4936789  79.1840148  51.3059831  32.2295875
  87.0794725  64.2537977  31.4419547  87.0064897  65.0592949  31.9538852
  86.6372118  64.4529943  30.6167568  86.8684505  63.4909747  24.9522369
  86.0852027  64.0331427  25.0460593  87.5677250  64.0083727  25.3516610
  90.1781155  49.3004377  27.5956574  90.6749855  48.5474339  27.2757644
  89.4068137  49.3368693  27.0299783  98.0310912  55.0044742  29.2374866
  98.0200789  55.8869458  28.8668799  97.1628292  54.6516293  29.0429403
  89.5393409  64.1524811  33.5977706  90.2521381  64.7872276  33.5253607
  89.0483437  64.2488677  32.7817708  91.2610936  58.0576064  25.1694997
  90.3267214  58.1777526  24.9999702  91.4387604  57.1548531  24.9055007
  86.7616124  51.4421760  27.3228259  86.3913911  50.8892800  28.0109164
  87.2575216  50.8379893  26.7703259  94.6483487  53.8993383  25.7045032
  95.1143939  54.7321375  25.6305334  95.0990988  53.4338365  26.4090290
  84.5905322  61.9019255  34.4183277  85.2914782  62.5355738  34.5712671
  84.1200437  62.2433986  33.6578916  92.7159718  60.2437204  22.7031184
  92.9919562  60.1293799  23.6125058  91.8464217  59.8454689  22.6643357
  92.6200150  46.2673970  29.7435933  91.7063230  46.4978197  29.9118140
  93.0493251  46.3512414  30.5949965  92.3906608  54.4563862  32.2435827
  91.7378059  54.7039769  31.5888280  92.7686988  53.6428000  31.9098304
  89.3513782  64.4923555  26.3463997  89.5336177  63.6745211  26.8091750
  90.1746768  64.7091247  25.9088887  89.6855948  63.4191740  23.6079046
  90.2143714  62.9084195  22.9949208  89.9484167  63.1034271  24.4724579
  88.4394181  55.1983673  38.7301864  87.7634818  55.0977802  39.4004239
  89.2621815  55.0422887  39.1937861  80.1873040  61.4355610  31.3514379
  80.7726477  60.6899298  31.4842283  79.9897879  61.7459566  32.2351043
  83.0411696  64.4706857  26.3676822  82.3722071  64.9552985  25.8840862
  82.9024565  64.7176077  27.2820200  74.7790695  54.0061210  30.0718822
  74.8174795  53.4724801  30.8655940  74.2730988  53.4796415  29.4529800
  87.1816964  66.5050601  32.9659480  87.7335272  66.6682222  33.7308565
  87.5223158  67.0955038  32.2939505  82.1581457  48.8525750  33.5681365
  82.2222784  49.7140581  33.1558762  82.0948578  48.2399752  32.8353723
  81.6333730  50.9248883  37.2154399  82.2605769  50.5425960  37.8291923
  80.7761649  50.7063085  37.5810091  92.0327839  61.3311858  38.8208134
  92.5767743  61.9441816  38.3263089  91.4514683  61.8891436  39.3375147
  78.4099273  52.7325312  23.1472754  78.7052714  51.8235990  23.0939807
  77.5087308  52.7113051  22.8253756  90.3185351  64.4532576  29.9523162
  90.1936491  63.6522316  29.4434108  90.9764443  64.9478769  29.4637132
  81.9393520  50.8081309  29.1300302  81.2180105  51.4217276  28.9907776
  82.7286775  51.3439073  29.0516948  92.3820260  62.2541596  31.5802712
  91.4350595  62.1346947  31.5081039  92.7303033  61.3664094  31.6628974
  84.7419833  48.1435735  35.4040954  85.2654235  48.3898032  36.1667263
  84.5232167  48.9755770  34.9844091  80.1387114  50.4139410  23.2712079
  79.8099820  49.5336789  23.0887185  80.4926485  50.3587078  24.1588468
  89.3866693  62.0494312  27.7807064  89.2391656  61.1211020  27.9614635
  90.2120187  62.0714403  27.2964140  83.2528937  50.7012379  23.6387557
  83.5925010  51.2298301  22.9166165  83.7001058  51.0392786  24.4146123
  92.9900815  62.8722871  28.8671937  93.9147362  62.6665732  28.7296388
  92.8216118  62.6239272  29.7761279  85.9472378  49.0849430  33.0890625
  85.6069199  48.2857243  33.4911305  85.2411385  49.3851141  32.5167458
  86.5988850  46.1698743  31.5417948  87.4214919  45.6959221  31.4196838
  86.8426914  46.9489226  32.0416634  85.2397085  49.1987001  21.8380849
  85.9605447  49.5768254  21.3344566  84.6162389  49.9175878  21.9415827
  89.3828207  49.9032150  22.7739182  89.5991822  50.7856788  22.4728010
  88.9022275  49.5118363  22.0444824  84.1227429  52.8617863  29.3509926
  83.9772010  53.1758166  30.2434208  83.6452632  53.4802764  28.7980825
  85.9823812  49.8520411  29.3990816  85.9685381  48.9561505  29.0623114
  86.6996240  49.8591075  30.0329102  87.8349942  50.2857751  31.4443943
  87.5767720  51.2074822  31.4428274  87.3034983  49.8888186  32.1344407
  92.7796131  63.3908539  24.2234029  92.9533009  62.8254961  23.4707881
  93.2725022  64.1909433  24.0413519  78.5973091  55.4023208  32.2897587
  78.0526559  56.1783016  32.4217862  79.4752441  55.7494012  32.1316709
  85.3860708  48.7334791  24.6678386  85.5076619  47.8051438  24.8669274
  85.0962750  48.7473477  23.7556701  88.2551898  46.4189702  27.8045106
  88.2773595  46.4829035  26.8497085  88.6719957  45.5794211  27.9985612
  98.6335522  56.1544961  25.8424328  99.0766668  55.4052287  25.4443452
  97.7562033  56.1455098  25.4598060  93.7671304  62.7075303  21.3230927
  94.4622208  63.3281996  21.5418242  94.1094454  61.8570654  21.5983305
  79.3839113  54.5293104  35.1827744  78.6420849  54.6775739  35.7692375
  79.0631857  54.7901370  34.3194494  95.6662727  60.1575008  22.8518258
  96.1914051  60.4962281  22.1267578  95.5785079  59.2222024  22.6681392
  87.3282776  64.0709082  34.9808134  87.6369902  63.8258229  35.8530834
  88.1258258  64.2755721  34.4927005  87.3503388  66.2246992  27.2113511
  86.9108378  65.7323370  27.9046368  88.1011505  65.6819959  26.9705586
  79.8295727  62.4158533  27.2138139  80.6553746  62.1162304  26.8336783
  79.4789779  61.6466155  27.6627928  84.7977260  61.7685001  29.2835813
  84.1757269  61.1055706  28.9838040  85.4682127  61.7946133  28.6009460
  78.0304332  60.3344859  28.1727073  77.1936240  59.9067033  27.9911074
  78.0027977  60.5277302  29.1097864  84.8701787  50.2466789  38.8768319
  84.9189943  51.1228912  38.4946088  85.4124301  49.7044182  38.3039962
  95.3556633  60.7907912  38.1569456  94.5652177  60.7732051  37.6173955
  95.1189987  61.3296206  38.9118492  95.4754508  57.6400378  35.4702184
  95.5252513  57.4750386  36.4117707  95.3668431  56.7727638  35.0800065
  84.3590767  60.3188924  22.7594273  84.5078887  61.0024389  22.1060946
  85.1657210  60.2994014  23.2743729  92.7658270  53.6231307  36.7861491
  93.6668133  53.4837771  36.4945489  92.8406245  53.7885761  37.7259668
  87.1001076  50.9998161  35.6314677  86.2304385  51.2931727  35.3597266
  87.3360556  51.5838606  36.3521941  96.9772705  60.0597320  35.7144206
  96.6857513  60.4227301  36.5507667  96.3644836  59.3464328  35.5357538
  98.1768387  57.6250200  28.2346776  99.0115278  58.0640004  28.3984336
  98.3127516  57.1488853  27.4155022  95.2259893  55.1829935  34.1824264
  95.7014015  55.3757581  33.3743115  94.3025458  55.2389120  33.9367647
  82.1143400  56.3454102  23.7655342  81.8689442  55.4416432  23.9635552
  82.2839314  56.3471252  22.8234820  89.8040110  47.2177778  33.1480098
  90.3222053  47.9538805  32.8226586  89.4495242  47.5241771  33.9826857
  81.3839047  52.0782459  21.2641503  80.6908292  52.1526814  20.6081539
  81.1390799  51.3142803  21.7863020  90.0552704  43.6378061  28.6680994
  90.3354457  42.9701250  29.2941421  90.8403311  43.8307156  28.1555658
  87.8586172  62.8137055  20.2306021  87.2860139  63.4327242  19.7776492
  88.4318966  63.3636416  20.7645942  93.9261562  52.0595695  32.4152569
  94.8778985  52.1593792  32.4364793  93.7565012  51.2673963  32.9250654
  91.9475941  49.1451278  32.6011970  91.3525874  49.4256291  31.9058459
  91.6625638  49.6345179  33.3728711  91.0783432  63.0974205  21.3614603
  92.0114105  63.0319766  21.5647478  90.9906645  63.9330472  20.9029135
  93.7071449  62.4140075  18.3218550  93.6285080  62.0799939  19.2154308
  94.5281115  62.9061843  18.3210023  96.4049640  55.2801814  31.5294869
  96.3725960  54.3417815  31.7154553  97.0150263  55.3585851  30.7960694
  88.2432971  54.1497867  17.5722073  89.1892075  54.0204075  17.6410491
  87.8647216  53.4112529  18.0491501  96.5544128  52.0712858  31.5753152
  96.0383177  51.2871314  31.3883081  97.4384077  51.7431574  31.7399672
  94.2154855  45.8153873  27.5348965  94.0179676  45.5068962  28.4192297
  94.8254561  46.5415512  27.6646895 102.2226190  56.3417821  30.6700906
 102.9529578  56.0803109  31.2308609 101.6133135  55.6046543  30.7102974
 100.3041487  54.4825684  31.2675357  99.5774650  54.3481649  30.6591849
  99.8888774  54.7902512  32.0732075  88.1271663  58.2015614  39.0322730
  89.0474673  58.3794213  39.2262777  88.0921246  57.2571659  38.8802429
  86.4275888  52.0747844  17.5076958  85.5207343  51.7780956  17.5839672
  86.7051869  51.7777662  16.6411245  77.3453828  53.3954207  27.9576005
  77.0256613  52.5419515  27.6650379  76.7987256  53.6102785  28.7133972
  81.1233736  56.1116648  31.6745511  81.3419746  57.0433756  31.6933545
  81.5359510  55.7524623  32.4600315  88.0437954  46.6184733  23.6621200
  87.2338682  46.2731818  24.0376446  88.7322370  46.3092277  24.2508811
  89.9728502  45.6962780  25.2845496  90.5259540  46.1158234  25.9435519
  90.2098588  44.7698528  25.3268452  85.9961601  51.6849854  41.0648260
  85.8958328  52.6344211  40.9960351  85.7783143  51.3568093  40.1924330
  85.1974672  48.9334779  17.6488937  86.0593836  49.2589677  17.9084755
  85.3825017  48.1466275  17.1362003  77.2142088  57.0157119  29.9269126
  76.5205560  56.6011071  29.4139081  77.9615079  57.0577655  29.3302545
  93.3507309  47.8063305  24.7924160  92.7705978  48.4648109  24.4102213
  93.0843242  46.9840650  24.3811578  91.8010875  47.2068363  26.9945481
  92.3010654  47.3184898  26.1859800  92.4446483  46.9029416  27.6346289
  85.8592871  55.1146993  39.8813322  85.3759953  55.9147353  40.0877211
  85.9453810  55.1254938  38.9280766  79.1278831  56.9475372  27.8035141
  79.1049519  57.0463060  26.8517024  79.4379467  57.7940523  28.1252307
  81.7866209  59.0051527  31.9181756  82.7409462  58.9735470  31.8511687
  81.5878732  58.5442151  32.7331981  82.3765591  57.5752644  34.4852553
  83.1958480  58.0696722  34.5087390  82.6502398  56.6584612  34.4570121
  92.1332187  49.9663396  23.8480509  91.2458042  50.2513046  23.6300703
  92.5486176  49.8057159  23.0007786  95.4846723  49.9909917  27.5634848
  96.2607113  50.4806369  27.8359465  94.7594857  50.4167971  28.0206717
  97.9219282  50.7037536  28.6208789  98.5163773  50.4633272  27.9102097
  97.9945865  49.9844667  29.2482325  80.1416437  64.5471147  28.9351953
  80.0070905  63.7871548  28.3689951  79.7248500  65.2712047  28.4680742
  91.2775400  59.7308070  17.9428529  91.9811251  59.9358073  18.5586184
  90.5538049  60.2984832  18.2077612  92.1073211  55.4817932  24.0630799
  92.0508412  55.9386483  23.2238431  92.6601553  54.7208616  23.8853642
  95.9178017  51.2707664  24.8880918  95.6614951  50.8704299  25.7189126
  95.2930885  51.9851458  24.7631058 100.2290354  54.0103737  27.3952210
  99.6689912  54.0796926  28.1683772  99.6233858  53.8344722  26.6751706
  83.2985563  65.4440464  29.1470396  83.1817947  66.3885896  29.0449086
  82.4778010  65.1414026  29.5356195  93.1862098  60.1690600  19.9926989
  94.0207702  59.7371798  19.8104464  93.0246441  59.9972613  20.9203883
  92.8407990  56.6722713  21.3583328  92.7856794  56.5066984  20.4171772
  92.2154045  57.3798746  21.5145518  77.6300505  51.9090777  35.1844750
  78.2759369  51.3989731  35.6731975  77.4217656  52.6459459  35.7588176
  90.1553897  58.9771625  40.6836891  91.0245057  59.1512277  40.3223526
  89.6760649  59.7966042  40.5612620  86.1504115  46.1730822  20.9368646
  86.1382785  47.1172662  21.0936917  87.0427537  45.9900967  20.6428108
  84.3240077  66.0968726  32.3626324  85.2267324  66.1292336  32.6792819
  84.0977447  65.1669177  32.3772660  86.0793679  64.8499712  29.0236403
  85.1289310  64.8501574  28.9100775  86.3826166  64.1032447  28.5072438
  89.9656235  42.7673599  25.1914583  89.1988631  42.2132085  25.3371266
  90.3766940  42.8395467  26.0528735  81.9697996  49.0558394  39.2819765
  82.8329458  48.6995199  39.4923089  81.3963407  48.7172289  39.9695169
 101.8146373  70.6860251  30.0882166 102.4524783  70.5666998  29.3845506
 101.6967216  71.6341095  30.1470118  98.6236079  70.6387679  30.0243690
  98.2854591  70.5228744  29.1364225  99.4925847  70.2378844  30.0044696
  94.4822895  72.4923155  26.0140581  93.9187760  72.4013092  25.2456869
  94.3675290  71.6723060  26.4943074  99.1055862  71.7922531  35.9829896
  99.0944503  71.3975329  35.1110399  99.2676502  71.0588603  36.5763667
  92.0287327  73.9874347  28.8524802  92.8208619  73.6465172  28.4371101
  92.2683977  74.0969322  29.7726955 100.0622454  76.1594123  21.3255046
  99.4110433  76.7448203  20.9389060 100.8566816  76.6900318  21.3850084
  93.9878081  73.2483260  21.7242180  94.7608957  72.7012247  21.5855056
  94.3403480  74.1127510  21.9356642  95.8263123  74.5759642  34.9309080
  95.5352989  75.4805273  34.8155746  96.4620108  74.6176170  35.6453149
  96.7519330  71.9536491  31.5210439  97.3482902  71.7292513  30.8067402
  96.8094302  71.2121236  32.1235887  96.3244359  69.4075926  19.3560630
  96.5769879  68.8857448  18.5944093  95.3868918  69.2442072  19.4587314
 101.3687641  68.4111705  27.1635374 102.1550731  67.9931128  26.8125791
 101.6326346  69.3157797  27.3317022 101.5397719  73.8484555  21.8624030
 100.9043552  73.9219181  22.5744935 101.2095125  74.4378154  21.1843110
 106.7696069  68.3486938  28.0668352 107.5021240  67.7786155  28.3006182
 106.0135424  67.9608538  28.5074858  96.0440647  71.3104032  21.5585005
  95.9276905  70.6348936  22.2266090  96.1542907  70.8236406  20.7417158
  98.3872188  70.7714179  25.2631695  98.0230395  70.2444800  25.9744616
  99.2439304  70.3812648  25.0898180 104.2921489  62.0608512  32.5262961
 103.9604814  62.9303923  32.3024176 103.6967102  61.7444796  33.2056991
  98.0277675  65.8004079  20.2593043  98.1952078  66.6684315  20.6263514
  97.8374844  65.9631361  19.3354332 100.7853008  74.2621058  31.9258873
 100.4853731  75.1646097  31.8174681 100.4404068  73.9953241  32.7780026
  94.2365490  70.7134855  27.9595578  93.3115986  70.5811069  28.1673270
  94.4849903  71.4929074  28.4565520 104.1850152  66.7803598  29.6056311
 103.2767030  66.7119007  29.3115072 104.1337748  67.2575543  30.4338136
  98.0066896  68.2561737  21.2439710  97.8866521  68.7018787  22.0825190
  97.3119484  68.6047054  20.6853248  91.5974301  70.3568128  28.7939367
  91.7266682  70.6102607  29.7078779  90.9171752  70.9495836  28.4744022
  95.7673788  81.0265378  24.8929841  95.6897818  81.9773203  24.9718322
  95.1635432  80.6811251  25.5504767  98.2591018  68.1993244  37.5491208
  97.4824352  68.7587164  37.5394073  98.8981581  68.6850027  38.0706078
 106.0511799  64.9820037  31.3834185 105.4086179  65.2752570  30.7373979
 105.5466727  64.8672957  32.1887381 103.7051962  68.7283210  22.0720044
 104.6169818  68.9610596  21.8967741 103.1961609  69.3120254  21.5095123
  96.5137390  71.0078697  37.1109175  97.2552075  71.5463741  36.8343999
  95.8074376  71.6344986  37.2680727 101.9892730  73.1507838  35.7081336
 102.3976086  72.7090248  34.9635969 101.2669991  72.5760465  35.9615529
  98.3423800  68.0880444  33.0814893  99.1884995  68.5119858  33.2249542
  98.2822438  67.4314069  33.7753457 102.3121545  73.7109028  29.4633625
 101.6830407  73.8754742  28.7609693 101.9247207  74.1250638  30.2344589
 106.1910776  74.6463466  26.8177989 105.5061815  75.0262367  26.2675022
 106.2754626  75.2558793  27.5509937 101.4923245  65.7484813  34.7396067
 101.2484177  66.5026873  34.2030343 101.7683176  66.1270160  35.5743314
 103.4461708  72.2923425  33.4173333 103.6578603  72.9355185  32.7407714
 103.3991456  71.4585742  32.9495263 101.0487937  64.9041246  30.3209905
 100.1872416  65.2022499  30.6126642 101.0750372  65.1211645  29.3890937
  97.8649506  73.4483436  26.7283710  98.3287852  73.7271139  25.9388333
  97.6006305  72.5466881  26.5456801  94.7573588  72.9954918  29.6663474
  95.3274945  73.4242186  29.0280958  95.3481699  72.7137503  30.3647659
  96.8018392  69.5706589  23.5373276  97.5042436  70.0227632  24.0047202
  96.4699021  68.9290408  24.1653169  95.2498754  68.1618345  37.9124485
  94.6197415  68.8434626  38.1459882  95.1434842  68.0501427  36.9677623
  90.5443726  67.8290141  28.8390409  89.7542780  68.0847670  28.3630520
  91.0354974  68.6438479  28.9442450 104.5607536  75.1695380  31.5895690
 105.3824980  74.7675568  31.3078372 104.5569939  75.0663615  32.5411806
  92.4958472  68.1934721  25.7973886  91.6989635  68.3053415  26.3157382
  92.2684064  68.5321373  24.9314776  98.3264139  74.7179424  33.7456401
  98.3908572  75.1799831  34.5814572  97.6175063  74.0876789  33.8738710
  88.8281429  68.0820632  31.2705400  89.0789468  68.9667642  31.5362976
  89.3640978  67.9025233  30.4980492  98.0412157  76.3847531  23.6135381
  97.9057832  77.2299067  24.0420229  98.5821970  76.5866809  22.8501315
  94.5279497  62.4639111  40.2749736  94.1346442  61.9105310  40.9497380
  95.3445637  62.7749690  40.6656254  91.4941555  73.9022969  24.1863306
  92.0066075  74.6966220  24.3368871  92.1464267  73.2049260  24.1196907
  93.3036439  77.0188726  26.2686059  93.4803068  77.9406690  26.0807043
  94.0993273  76.7047145  26.6980439  97.4447458  63.8796990  37.8669993
  98.1857171  64.4804143  37.7874455  97.6765381  63.1374628  37.3088035
  92.5888796  69.0653357  36.1448222  92.4742311  68.1638615  36.4455321
  91.7333314  69.3117054  35.7933039  99.6680633  77.0071098  37.7435723
  99.2244488  76.2207476  37.4256627 100.3297847  77.1950248  37.0779614
  94.4267755  78.5366899  32.2696401  94.9775180  78.4083963  31.4973395
  93.5879231  78.8361788  31.9191294 101.7661872  77.2873898  35.7717124
 101.7480347  78.1082779  35.2797393 102.6881792  77.1627973  35.9967265
  98.2234926  74.8018027  36.6140633  98.7563263  74.0406315  36.3839941
  97.6949007  74.5091679  37.3564787 101.3904621  59.9078093  32.1434274
 101.0468890  60.7979735  32.0673385 101.7583583  59.7179751  31.2803859
  89.4590471  72.2311624  24.9622876  90.2965693  72.6408632  24.7456584
  89.6368739  71.2911066  24.9323070 101.3554903  69.8986704  20.6506709
 100.8401527  70.6691309  20.8895097 101.0832212  69.2251840  21.2739771
  98.9402014  64.7436405  25.7091948  98.0843611  64.3543255  25.5297586
  99.3528966  64.8228366  24.8491733 100.4701161  62.2782748  30.1083508
  99.9665957  62.2412883  29.2951313 100.7631768  63.1875491  30.1680164
  96.7144047  62.3621478  29.1149689  97.5797044  62.1664287  28.7555579
  96.7821556  62.1331830  30.0419046 106.3289178  72.6519059  22.5859883
 105.5518620  72.3130218  22.1415045 107.0080659  72.6571682  21.9114848
 101.1441207  67.7713796  22.4766491 100.8391342  68.0859946  23.3276634
 102.0971649  67.8495216  22.5193824  99.5887638  73.9304020  24.1259445
  99.0609000  73.1956779  23.8132682  99.0875141  74.7078696  23.8799413
 104.5680484  72.1253040  29.2426491 103.9104159  72.8152302  29.3306619
 105.3720884  72.5149472  29.5860477  94.3206366  64.5923686  26.4866056
  94.8950118  64.3698867  25.7539249  94.9077348  64.6612380  27.2394657
 103.3785943  70.4797413  27.2930433 103.8917825  71.1127405  27.7952142
 104.0287167  69.8798608  26.9273793  94.6475953  66.6228147  20.5061941
  93.8113265  66.9602834  20.8271216  94.5080723  66.4877127  19.5689078
  96.6229034  61.4664935  25.2141126  95.9693446  61.1513952  24.5897740
  96.5809508  60.8440675  25.9400948  97.7340239  71.7484230  17.1294418
  96.8267300  71.5173483  17.3285567  98.2311271  70.9521849  17.3168399
  99.8566774  67.9546868  29.5388773  98.9389335  68.1761815  29.3810461
 100.2726918  68.0293179  28.6800480 100.6401822  69.3538284  24.6691453
 101.3873641  69.8659681  24.3598575 100.9093411  69.0322337  25.5295847
  98.9128472  71.8496825  21.6518408  98.0039691  71.5655858  21.7490877
  98.9423556  72.2695903  20.7921715 104.1447739  75.4603414  25.4209575
 103.6910067  74.6194324  25.4774766 103.5141706  76.0964813  25.7584355
 103.0880659  66.3895400  26.6510243 102.3503416  65.8772787  26.9820485
 103.3407433  65.9495782  25.8393520 102.5880679  77.2979911  26.3559393
 102.8803653  77.8584968  25.6371759 103.0979299  77.5908472  27.1112552
 103.1892286  59.1671652  27.2452012 103.4951163  58.3069016  26.9577927
 103.9144891  59.7589273  27.0451006  89.4816642  69.5702339  25.6333610
  89.2841042  68.9771700  24.9084676  88.9263306  69.2654549  26.3509549
  97.4613366  69.4625445  27.7528203  97.5161976  68.5099282  27.6770680
  96.6504568  69.6184884  28.2369501  98.6104560  73.3905568  18.9906486
  98.1723990  72.6741427  18.5312124  99.3515001  73.6181683  18.4291578
  95.4005726  68.0802505  25.5118582  94.5873592  68.3796676  25.9183774
  95.8964720  67.6858194  26.2293064  97.5514304  78.0760262  27.4452847
  97.5090483  78.3021108  26.5161379  98.4677003  77.8423637  27.5938648
 100.9979938  68.5444330  34.3433476 101.3529325  68.7715803  35.2027942
 101.6452069  68.8762706  33.7210731 106.7277675  71.6662766  25.0482805
 106.5895573  71.8564361  24.1203994 106.3713893  72.4282148  25.5050856
  94.8919801  65.6520861  31.1279817  95.5319180  65.5109620  30.4302780
  94.0597331  65.3655374  30.7518419 106.7547054  73.7339293  30.0594076
 107.1883561  73.6414582  30.9077130 107.4678635  73.7096793  29.4214092
  95.6680105  74.9523291  27.2414809  96.4620703  74.4573611  27.0397384
  94.9571797  74.4241154  26.8782515 100.4874949  77.3341387  31.5927177
 100.5411971  77.9032323  32.3604893  99.6189731  77.5043272  31.2281214
  91.9762868  69.0966373  23.3174562  91.0460456  69.0350828  23.5344524
  92.0720340  68.5742326  22.5211203  91.8948417  65.6221186  25.9052804
  92.1555234  66.5366519  25.7961964  92.7165590  65.1545628  26.0549416
  93.3673343  67.0358943  33.0751628  94.0396396  66.8276305  32.4264277
  92.5403129  66.8381029  32.6356860 107.6162604  73.7762993  32.5926962
 107.8098494  74.6808804  32.8386237 107.5163222  73.3170412  33.4265547
  99.2698915  63.6620884  35.0917289  98.6226830  64.3610833  34.9981765
 100.0399930  64.0957028  35.4593537 102.6777712  73.9269736  38.1667842
 102.5263219  73.6980288  37.2497926 102.6682392  74.8840337  38.1799187
  99.4463049  71.5001649  33.1514109 100.3755109  71.6512808  32.9783076
  99.0254079  71.5885669  32.2962755  98.2451381  75.5252313  30.9212646
  98.1062466  75.1571097  31.7938585  97.4565977  76.0399953  30.7496604
  98.8399533  80.6261410  22.2638183  99.0151288  80.1549453  23.0783806
  98.1532321  81.2527176  22.4919444  99.7956596  74.9033916  28.3101484
  99.4606428  74.8634686  29.2059134  99.2960541  74.2378632  27.8371894
  93.7700840  70.3101546  33.8354065  93.6320638  69.5781785  34.4365604
  94.6805763  70.2210446  33.5538253 102.7315787  72.2489950  18.5838544
 102.1144958  71.5236778  18.4871597 102.2632276  73.0099310  18.2405618
  96.3983140  70.0221505  33.3237745  97.1082759  69.3814697  33.2824363
  96.3552449  70.2734400  34.2463926 104.3869919  76.9588858  36.2444324
 104.3282465  76.2748079  35.5774907 104.7889437  77.7007848  35.7924950
  95.1112074  67.0086723  35.1433384  94.5749431  66.5577461  35.7954981
  94.5228783  67.1432632  34.4003849  93.4060618  83.7750772  29.0378043
  93.6457216  84.4069296  29.7157062  92.5629814  83.4238812  29.3243402
  94.5214333  66.4675374  17.7059848  93.6443800  66.3464175  17.3422095
  94.9972086  65.6761453  17.4538737 104.3887326  74.9228442  34.4758304
 103.5014105  74.5854364  34.5984703 104.9585877  74.1911474  34.7127069
  86.0416473  71.2552534  27.8001355  86.7287513  70.9414264  27.2122371
  85.8864602  72.1593899  27.5268607  90.8451196  66.1442731  32.2286379
  90.7609384  65.5368400  31.4936789  90.0233902  66.6351749  32.2295875
  97.9188480  79.5829895  31.4419547  97.8458651  80.3884866  31.9538852
  97.4765873  79.7821861  30.6167568  97.7078259  78.8201665  24.9522369
  96.9245781  79.3623345  25.0460593  98.4071005  79.3375644  25.3516610
 101.0174910  64.6296294  27.5956574 101.5143609  63.8766257  27.2757644
 100.2461891  64.6660611  27.0299783 108.8704667  70.3336660  29.2374866
 108.8594543  71.2161375  28.8668799 108.0022046  69.9808211  29.0429403
 100.3787163  79.4816729  33.5977706 101.0915136  80.1164194  33.5253607
  99.8877192  79.5780595  32.7817708 102.1004690  73.3867981  25.1694997
 101.1660969  73.5069444  24.9999702 102.2781359  72.4840448  24.9055007
  97.6009878  66.7713677  27.3228259  97.2307666  66.2184718  28.0109164
  98.0968971  66.1671811  26.7703259 105.4877242  69.2285301  25.7045032
 105.9537694  70.0613292  25.6305334 105.9384742  68.7630282  26.4090290
  95.4299077  77.2311172  34.4183277  96.1308536  77.8647655  34.5712671
  94.9594192  77.5725904  33.6578916 103.5553473  75.5729122  22.7031184
 103.8313317  75.4585717  23.6125058 102.6857971  75.1746607  22.6643357
 103.4593904  61.5965888  29.7435933 102.5456984  61.8270115  29.9118140
 103.8887006  61.6804332  30.5949965 103.2300363  69.7855780  32.2435827
 102.5771813  70.0331687  31.5888280 103.6080743  68.9719918  31.9098304
 100.1907537  79.8215473  26.3463997 100.3729931  79.0037129  26.8091750
 101.0140523  80.0383165  25.9088887 100.5249702  78.7483658  23.6079046
 101.0537469  78.2376113  22.9949208 100.7877922  78.4326188  24.4724579
  99.2787936  70.5275591  38.7301864  98.6028573  70.4269720  39.4004239
 100.1015570  70.3714804  39.1937861  91.0266795  76.7647527  31.3514379
  91.6120232  76.0191215  31.4842283  90.8291633  77.0751484  32.2351043
  93.8805450  79.7998775  26.3676822  93.2115825  80.2844902  25.8840862
  93.7418320  80.0467995  27.2820200  85.6184450  69.3353128  30.0718822
  85.6568549  68.8016718  30.8655940  85.1124742  68.8088333  29.4529800
  98.0210719  81.8342518  32.9659480  98.5729027  81.9974140  33.7308565
  98.3616912  82.4246956  32.2939505  92.9975212  64.1817668  33.5681365
  93.0616538  65.0432499  33.1558762  92.9342332  63.5691670  32.8353723
  92.4727484  66.2540801  37.2154399  93.0999523  65.8717878  37.8291923
  91.6155403  66.0355002  37.5810091 102.8721593  76.6603776  38.8208134
 103.4161497  77.2733734  38.3263089 102.2908438  77.2183354  39.3375147
  89.2493027  68.0617230  23.1472754  89.5446468  67.1527908  23.0939807
  88.3481063  68.0404969  22.8253756 101.1579106  79.7824494  29.9523162
 101.0330245  78.9814234  29.4434108 101.8158197  80.2770687  29.4637132
  92.7787274  66.1373226  29.1300302  92.0573860  66.7509194  28.9907776
  93.5680530  66.6730991  29.0516948 103.2214014  77.5833514  31.5802712
 102.2744350  77.4638865  31.5081039 103.5696787  76.6956012  31.6628974
  95.5813588  63.4727653  35.4040954  96.1047990  63.7189949  36.1667263
  95.3625921  64.3047688  34.9844091  90.9780869  65.7431327  23.2712079
  90.6493575  64.8628706  23.0887185  91.3320239  65.6878996  24.1588468
 100.2260448  77.3786230  27.7807064 100.0785410  76.4502937  27.9614635
 101.0513941  77.4006321  27.2964140  94.0922692  66.0304297  23.6387557
  94.4318764  66.5590218  22.9166165  94.5394812  66.3684703  24.4146123
 103.8294569  78.2014789  28.8671937 104.7541117  77.9957650  28.7296388
 103.6609873  77.9531190  29.7761279  96.7866133  64.4141348  33.0890625
  96.4462953  63.6149161  33.4911305  96.0805139  64.7143059  32.5167458
  97.4382605  61.4990660  31.5417948  98.2608674  61.0251138  31.4196838
  97.6820668  62.2781144  32.0416634  96.0790839  64.5278919  21.8380849
  96.7999202  64.9060171  21.3344566  95.4556143  65.2467796  21.9415827
 100.2221962  65.2324068  22.7739182 100.4385576  66.1148706  22.4728010
  99.7416029  64.8410281  22.0444824  94.9621183  68.1909781  29.3509926
  94.8165764  68.5050084  30.2434208  94.4846387  68.8094681  28.7980825
  96.8217566  65.1812329  29.3990816  96.8079135  64.2853422  29.0623114
  97.5389994  65.1882993  30.0329102  98.6743697  65.6149669  31.4443943
  98.4161475  66.5366740  31.4428274  98.1428737  65.2180104  32.1344407
 103.6189886  78.7200456  24.2234029 103.7926763  78.1546879  23.4707881
 104.1118777  79.5201351  24.0413519  89.4366846  70.7315125  32.2897587
  88.8920314  71.5074933  32.4217862  90.3146195  71.0785930  32.1316709
  96.2254462  64.0626709  24.6678386  96.3470373  63.1343355  24.8669274
  95.9356505  64.0765395  23.7556701  99.0945653  61.7481620  27.8045106
  99.1167349  61.8120953  26.8497085  99.5113712  60.9086128  27.9985612
 109.4729277  71.4836879  25.8424328 109.9160423  70.7344204  25.4443452
 108.5955787  71.4747016  25.4598060  90.2232867  69.8585022  35.1827744
  89.4814603  70.0067657  35.7692375  89.9025612  70.1193287  34.3194494
 106.5056481  75.4866926  22.8518258 107.0307805  75.8254199  22.1267578
 106.4178834  74.5513941  22.6681392  98.1676530  79.4001000  34.9808134
  98.4763656  79.1550147  35.8530834  98.9652012  79.6047638  34.4927005
  98.1897142  81.5538909  27.2113511  97.7502132  81.0615288  27.9046368
  98.9405259  81.0111877  26.9705586  90.6689481  77.7450450  27.2138139
  91.4947501  77.4454222  26.8336783  90.3183533  76.9758073  27.6627928
  95.6371014  77.0976919  29.2835813  95.0151024  76.4347624  28.9838040
  96.3075881  77.1238050  28.6009460  88.8698086  75.6636777  28.1727073
  88.0329994  75.2358951  27.9911074  88.8421732  75.8569220  29.1097864
  95.7095542  65.5758707  38.8768319  95.7583697  66.4520829  38.4946088
  96.2518056  65.0336100  38.3039962 106.1950387  76.1199830  38.1569456
 105.4045931  76.1023969  37.6173955 105.9583742  76.6588123  38.9118492
 106.3148262  72.9692296  35.4702184 106.3646267  72.8042304  36.4117707
 106.2062186  72.1019555  35.0800065  95.1984521  75.6480842  22.7594273
  95.3472641  76.3316306  22.1060946  96.0050965  75.6285932  23.2743729
 103.6052025  68.9523224  36.7861491 104.5061888  68.8129689  36.4945489
 103.6799999  69.1177679  37.7259668  97.9394830  66.3290079  35.6314677
  97.0698140  66.6223645  35.3597266  98.1754311  66.9130524  36.3521941
 107.8166459  75.3889238  35.7144206 107.5251268  75.7519218  36.5507667
 107.2038591  74.6756246  35.5357538 109.0162142  72.9542117  28.2346776
 109.8509033  73.3931922  28.3984336 109.1521270  72.4780771  27.4155022
 106.0653648  70.5121852  34.1824264 106.5407769  70.7049499  33.3743115
 105.1419213  70.5681038  33.9367647  92.9537154  71.6746019  23.7655342
  92.7083196  70.7708349  23.9635552  93.1233069  71.6763170  22.8234820
 100.6433864  62.5469696  33.1480098 101.1615808  63.2830723  32.8226586
 100.2888997  62.8533689  33.9826857  92.2232802  67.4074377  21.2641503
  91.5302047  67.4818732  20.6081539  91.9784554  66.6434721  21.7863020
 100.8946458  58.9669978  28.6680994 101.1748212  58.2993167  29.2941421
 101.6797065  59.1599074  28.1555658  98.6979927  78.1428972  20.2306021
  98.1253894  78.7619159  19.7776492  99.2712720  78.6928334  20.7645942
 104.7655317  67.3887612  32.4152569 105.7172739  67.4885710  32.4364793
 104.5958767  66.5965881  32.9250654 102.7869696  64.4743196  32.6011970
 102.1919628  64.7548208  31.9058459 102.5019393  64.9637097  33.3728711
 101.9177186  78.4266122  21.3614603 102.8507860  78.3611684  21.5647478
 101.8300399  79.2622389  20.9029135 107.2443394  70.6093732  31.5294869
 107.2119714  69.6709733  31.7154553 107.8544018  70.6877769  30.7960694
  99.0826725  69.4789785  17.5722073 100.0285830  69.3495993  17.6410491
  98.7040970  68.7404447  18.0491501 107.3937883  67.4004776  31.5753152
 106.8776931  66.6163232  31.3883081 108.2777831  67.0723492  31.7399672
 105.0548610  61.1445791  27.5348965 104.8573431  60.8360879  28.4192297
 105.6648315  61.8707430  27.6646895  98.9665418  73.5307531  39.0322730
  99.8868427  73.7086130  39.2262777  98.9315001  72.5863577  38.8802429
  97.2669642  67.4039761  17.5076958  96.3601098  67.1072874  17.5839672
  97.5445623  67.1069580  16.6411245  88.1847583  68.7246125  27.9576005
  87.8650367  67.8711433  27.6650379  87.6381011  68.9394703  28.7133972
  91.9627490  71.4408566  31.6745511  92.1813500  72.3725674  31.6933545
  92.3753264  71.0816540  32.4600315  98.8831708  61.9476651  23.6621200
  98.0732436  61.6023736  24.0376446  99.5716125  61.6384195  24.2508811
 100.8122256  61.0254698  25.2845496 101.3653295  61.4450151  25.9435519
 101.0492343  60.0990446  25.3268452  96.8355356  67.0141772  41.0648260
  96.7352082  67.9636129  40.9960351  96.6176898  66.6860011  40.1924330
  96.0368427  64.2626697  17.6488937  96.8987591  64.5881595  17.9084755
  96.2218771  63.4758193  17.1362003  88.0535843  72.3449036  29.9269126
  87.3599314  71.9302989  29.4139081  88.8008834  72.3869573  29.3302545
 104.1901063  63.1355223  24.7924160 103.6099732  63.7940027  24.4102213
 103.9236996  62.3132568  24.3811578 102.6404630  62.5360281  26.9945481
 103.1404408  62.6476815  26.1859800 103.2840238  62.2321334  27.6346289
  96.6986626  70.4438910  39.8813322  96.2153707  71.2439271  40.0877211
  96.7847565  70.4546855  38.9280766  89.9672585  72.2767290  27.8035141
  89.9443273  72.3754977  26.8517024  90.2773222  73.1232441  28.1252307
  92.6259963  74.3343445  31.9181756  93.5803217  74.3027387  31.8511687
  92.4272487  73.8734069  32.7331981  93.2159345  72.9044561  34.4852553
  94.0352234  73.3988640  34.5087390  93.4896153  71.9876529  34.4570121
 102.9725941  65.2955314  23.8480509 102.0851796  65.5804964  23.6300703
 103.3879931  65.1349077  23.0007786 106.3240478  65.3201834  27.5634848
 107.1000868  65.8098287  27.8359465 105.5988612  65.7459889  28.0206717
 108.7613036  66.0329454  28.6208789 109.3557527  65.7925190  27.9102097
 108.8339620  65.3136584  29.2482325  90.9810192  79.8763065  28.9351953
  90.8464660  79.1163466  28.3689951  90.5642254  80.6003965  28.4680742
 102.9466965  70.8109849  24.0630799 102.8902167  71.2678401  23.2238431
 103.4995308  70.0500534  23.8853642 106.7571771  66.5999581  24.8880918
 106.5008705  66.1996217  25.7189126 106.1324639  67.3143375  24.7631058
  94.1379318  80.7732382  29.1470396  94.0211702  81.7177814  29.0449086
  93.3171764  80.4705943  29.5356195 104.0255852  75.4982517  19.9926989
 104.8601456  75.0663716  19.8104464 103.8640195  75.3264531  20.9203883
 103.6801744  72.0014631  21.3583328 103.6250548  71.8358902  20.4171772
 103.0547800  72.7090664  21.5145518  88.4694259  67.2382695  35.1844750
  89.1153123  66.7281649  35.6731975  88.2611411  67.9751377  35.7588176
 100.9947652  74.3063543  40.6836891 101.8638811  74.4804195  40.3223526
 100.5154403  75.1257959  40.5612620  96.9897870  61.5022740  20.9368646
  96.9776540  62.4464580  21.0936917  97.8821292  61.3192885  20.6428108
  95.1633832  81.4260644  32.3626324  96.0661079  81.4584254  32.6792819
  94.9371202  80.4961095  32.3772660  96.9187434  80.1791630  29.0236403
  95.9683065  80.1793492  28.9100775  97.2219920  79.4324365  28.5072438
 100.8049989  58.0965516  25.1914583 100.0382385  57.5424003  25.3371266
 101.2160694  58.1687385  26.0528735  92.8091750  64.3850312  39.2819765
  93.6723212  64.0287117  39.4923089  92.2357161  64.0464207  39.9695169
 109.4629834  85.9679597  30.0243690 109.1248345  85.8520661  29.1364225
 110.3319602  85.5670762  30.0044696 109.9449617  87.1214448  35.9829896
 109.9338257  86.7267247  35.1110399 110.1070256  86.3880521  36.5763667
 102.8681081  89.3166265  28.8524802 103.6602373  88.9757089  28.4371101
 103.1077731  89.4261240  29.7726955 106.6656878  89.9051560  34.9309080
 106.3746744  90.8097191  34.8155746 107.3013862  89.9468088  35.6453149
 107.5913085  87.2828409  31.5210439 108.1876657  87.0584431  30.8067402
 107.6488056  86.5413154  32.1235887 105.0759244  86.0426772  27.9595578
 104.1509741  85.9102987  28.1673270 105.3243658  86.8220992  28.4565520
 102.4368055  85.6860046  28.7939367 102.5660437  85.9394525  29.7078779
 101.7565507  86.2787754  28.4744022 109.0984772  83.5285161  37.5491208
 108.3218107  84.0879082  37.5394073 109.7375336  84.0141944  38.0706078
 107.3531145  86.3370615  37.1109175 108.0945829  86.8755659  36.8343999
 106.6468130  86.9636904  37.2680727 109.1817554  83.4172362  33.0814893
 110.0278750  83.8411776  33.2249542 109.1216192  82.7605986  33.7753457
 105.5967342  88.3246835  29.6663474 106.1668699  88.7534104  29.0280958
 106.1875454  88.0429420  30.3647659 106.0892509  83.4910263  37.9124485
 105.4591169  84.1726544  38.1459882 105.9828596  83.3793345  36.9677623
 101.3837481  83.1582059  28.8390409 100.5936535  83.4139588  28.3630520
 101.8748728  83.9730397  28.9442450 103.3352226  83.5226638  25.7973886
 102.5383390  83.6345332  26.3157382 103.1077819  83.8613290  24.9314776
 109.1657894  90.0471341  33.7456401 109.2302326  90.5091749  34.5814572
 108.4568818  89.4168706  33.8738710  99.6675184  83.4112549  31.2705400
  99.9183222  84.2959559  31.5362976 100.2034732  83.2317151  30.4980492
 105.3673251  77.7931029  40.2749736 104.9740197  77.2397227  40.9497380
 106.1839392  78.1041607  40.6656254 108.2841212  79.2088908  37.8669993
 109.0250926  79.8096061  37.7874455 108.5159135  78.4666546  37.3088035
 103.4282550  84.3945275  36.1448222 103.3136065  83.4930532  36.4455321
 102.5727068  84.6408972  35.7933039 105.2661509  93.8658817  32.2696401
 105.8168934  93.7375880  31.4973395 104.4272985  94.1653706  31.9191294
 109.0628680  90.1309945  36.6140633 109.5957017  89.3698233  36.3839941
 108.5342761  89.8383597  37.3564787 109.7795769  80.0728323  25.7091948
 108.9237365  79.6835173  25.5297586 110.1922721  80.1520284  24.8491733
 107.5537801  77.6913396  29.1149689 108.4190798  77.4956204  28.7555579
 107.6215310  77.4623747  30.0419046 105.1600121  79.9215604  26.4866056
 105.7343872  79.6990785  25.7539249 105.7471103  79.9904298  27.2394657
 107.4622788  76.7956853  25.2141126 106.8087201  76.4805870  24.5897740
 107.4203262  76.1732593  25.9400948 100.3210397  84.8994257  25.6333610
 100.1234797  84.3063617  24.9084676  99.7657061  84.5946467  26.3509549
 108.3007121  84.7917363  27.7528203 108.3555730  83.8391199  27.6770680
 107.4898323  84.9476802  28.2369501 106.2399480  83.4094423  25.5118582
 105.4267346  83.7088593  25.9183774 106.7358475  83.0150112  26.2293064
 105.7313555  80.9812778  31.1279817 106.3712935  80.8401537  30.4302780
 104.8991086  80.6947292  30.7518419 102.7342172  80.9513103  25.9052804
 102.9948989  81.8658437  25.7961964 103.5559344  80.4837546  26.0549416
 104.2067097  82.3650861  33.0751628 104.8790150  82.1568223  32.4264277
 103.3796884  82.1672947  32.6356860 109.0845135  90.8544231  30.9212646
 108.9456221  90.4863015  31.7938585 108.2959731  91.3691870  30.7496604
 104.6094594  85.6393463  33.8354065 104.4714392  84.9073702  34.4365604
 105.5199518  85.5502364  33.5538253 107.2376895  85.3513423  33.3237745
 107.9476513  84.7106615  33.2824363 107.1946203  85.6026318  34.2463926
 105.9505829  82.3378641  35.1433384 105.4143186  81.8869379  35.7954981
 105.3622537  82.4724550  34.4003849  96.8810228  86.5844452  27.8001355
  97.5681268  86.2706182  27.2122371  96.7258357  87.4885816  27.5268607
 101.6844950  81.4734648  32.2286379 101.6003139  80.8660318  31.4936789
 100.8627657  81.9643667  32.2295875 108.4403633  82.1005595  27.3228259
 108.0701420  81.5476635  28.0109164 108.9362725  81.4963728  26.7703259
 106.2692831  92.5603090  34.4183277 106.9702291  93.1939573  34.5712671
 105.7987946  92.9017821  33.6578916 101.8660549  92.0939445  31.3514379
 102.4513986  91.3483133  31.4842283 101.6685388  92.4043402  32.2351043
  96.4578204  84.6645045  30.0718822  96.4962304  84.1308636  30.8655940
  95.9518497  84.1380251  29.4529800 103.8368966  79.5109586  33.5681365
 103.9010293  80.3724417  33.1558762 103.7736087  78.8983587  32.8353723
 103.3121239  81.5832718  37.2154399 103.9393278  81.2009796  37.8291923
 102.4549158  81.3646920  37.5810091 100.0886782  83.3909147  23.1472754
 100.3840223  82.4819826  23.0939807  99.1874817  83.3696887  22.8253756
 103.6181029  81.4665144  29.1300302 102.8967614  82.0801112  28.9907776
 104.4074284  82.0022909  29.0516948 106.4207342  78.8019570  35.4040954
 106.9441744  79.0481867  36.1667263 106.2019675  79.6339605  34.9844091
 101.8174623  81.0723245  23.2712079 101.4887329  80.1920624  23.0887185
 102.1713994  81.0170914  24.1588468 107.6259887  79.7433266  33.0890625
 107.2856708  78.9441079  33.4911305 106.9198894  80.0434976  32.5167458
 108.2776359  76.8282578  31.5417948 109.1002428  76.3543056  31.4196838
 108.5214423  77.6073062  32.0416634 105.8014938  83.5201699  29.3509926
 105.6559519  83.8342002  30.2434208 105.3240141  84.1386599  28.7980825
 107.6611321  80.5104247  29.3990816 107.6472889  79.6145340  29.0623114
 108.3783749  80.5174910  30.0329102 109.5137451  80.9441587  31.4443943
 109.2555229  81.8658657  31.4428274 108.9822492  80.5472021  32.1344407
 100.2760600  86.0607043  32.2897587  99.7314068  86.8366851  32.4217862
 101.1539950  86.4077847  32.1316709 107.0648217  79.3918627  24.6678386
 107.1864128  78.4635273  24.8669274 106.7750259  79.4057313  23.7556701
 109.9339407  77.0773537  27.8045106 109.9561104  77.1412870  26.8497085
 110.3507466  76.2378046  27.9985612 101.0626622  85.1876939  35.1827744
 100.3208358  85.3359575  35.7692375 100.7419366  85.4485205  34.3194494
  99.7091841  90.9928694  28.1727073  98.8723749  90.5650869  27.9911074
  99.6815486  91.1861138  29.1097864 106.5489296  80.9050624  38.8768319
 106.5977452  81.7812747  38.4946088 107.0911810  80.3628017  38.3039962
 108.7788585  81.6581997  35.6314677 107.9091894  81.9515563  35.3597266
 109.0148065  82.2422442  36.3521941  99.0241337  84.0538043  27.9576005
  98.7044122  83.2003351  27.6650379  98.4774765  84.2686621  28.7133972
 102.8021245  86.7700484  31.6745511 103.0207255  87.7017591  31.6933545
 103.2147019  86.4108458  32.4600315 109.7225463  77.2768569  23.6621200
 108.9126191  76.9315654  24.0376446 110.4109879  76.9676113  24.2508811
 107.6749110  82.3433689  41.0648260 107.5745837  83.2928046  40.9960351
 107.4570652  82.0151928  40.1924330  98.8929597  87.6740954  29.9269126
  98.1993069  87.2594907  29.4139081  99.6402588  87.7161491  29.3302545
 107.5380380  85.7730828  39.8813322 107.0547462  86.5731188  40.0877211
 107.6241319  85.7838773  38.9280766 100.8066340  87.6059208  27.8035141
 100.7837028  87.7046895  26.8517024 101.1166976  88.4524359  28.1252307
 103.4653718  89.6635363  31.9181756 104.4196971  89.6319305  31.8511687
 103.2666241  89.2025987  32.7331981 104.0553100  88.2336479  34.4852553
 104.8745989  88.7280558  34.5087390 104.3289907  87.3168447  34.4570121
  99.3088014  82.5674613  35.1844750  99.9546878  82.0573567  35.6731975
  99.1005165  83.3043294  35.7588176 103.6485505  79.7142230  39.2819765
 104.5116967  79.3579035  39.4923089 103.0750916  79.3756125  39.9695169
  66.1054817   1.6574048  16.7488997  65.7673328   1.5415113  15.8609532
  66.9744585   1.2565214  16.7290003  66.5874600   2.8108900  22.7075202
  66.5763241   2.4161698  21.8355706  66.7495239   2.0774973  23.3008974
  63.3081861   5.5946012  21.6554386  63.0171727   6.4991643  21.5401053
  63.9438845   5.6362540  22.3698456  64.2338068   2.9722861  18.2455746
  64.8301640   2.7478883  17.5312709  64.2913039   2.2307606  18.8481194
  68.2671746   5.2807428  18.6504180  67.9672469   6.1832466  18.5419987
  67.9222806   5.0139611  19.5025333  63.2492526  12.0451748  11.6175148
  63.1716556  12.9959573  11.6963628  62.6454170  11.6997620  12.2750074
  63.9956128   2.0265067  23.8354482  64.7370812   2.5650111  23.5589305
  63.2893114   2.6531355  23.9926033  69.4711468   4.1694207  22.4326643
  69.8794824   3.7276618  21.6881275  68.7488729   3.5946835  22.6860836
  69.7940282   4.7295398  16.1878932  69.1649145   4.8941112  15.4855000
  69.4065944   5.1437007  16.9589896  73.6729514   5.6649836  13.5423296
  72.9880552   6.0448737  12.9920329  73.7573364   6.2745162  14.2755244
  62.2392325   4.0141287  16.3908780  62.8093682   4.4428556  15.7526265
  62.8300437   3.7323872  17.0892966  72.0426274   6.1881750  18.3140997
  72.8643718   5.7861937  18.0323678  72.0388677   6.0849984  19.2657112
  65.8082877   5.7365793  20.4701707  65.8727310   6.1986201  21.3059879
  65.0993801   5.1063158  20.5984017  60.0707534   0.0839727  22.8693529
  59.9561049  -0.8175016  23.1700628  59.2152051   0.3303424  22.5178345
  67.1499371   8.0257467  24.4681030  66.7063225   7.2393846  24.1501934
  67.8116585   8.2136618  23.8024920  61.9086492   9.5553269  18.9941708
  62.4593918   9.4270332  18.2218702  61.0697968   9.8548158  18.6436601
  69.2480609   8.3060267  22.4962431  69.2299085   9.1269148  22.0042700
  70.1700529   8.1814342  22.7212572  65.7053664   5.8204397  23.3385939
  66.2382000   5.0592685  23.1085247  65.1767745   5.5278049  24.0810094
  72.0499222   3.1439410  15.9671798  71.3922897   3.8338671  16.0551926
  72.8539621   3.5335842  16.3105784  71.6266477   6.4789784  12.1454882
  71.1728804   5.6380694  12.2020072  70.9960444   7.1151182  12.4829662
  70.0699416   8.3166281  13.0804700  70.3622391   8.8771338  12.3617066
  70.5798037   8.6094842  13.8357859  65.0333042   9.0946632  14.1698153
  64.9909220   9.3207478  13.2406685  65.9495741   8.8610006  14.3183954
  74.2365792   4.7525662  16.7839383  74.6702299   4.6600951  17.6322437
  74.9497373   4.7283163  16.1459399  67.9693687   8.3527756  18.3172484
  68.0230709   8.9218693  19.0850199  67.1008468   8.5229641  17.9526521
  75.0981342   4.7949363  19.3172268  75.2917232   5.6995173  19.5631543
  74.9981960   4.3356782  20.1510853  70.1596450   4.9456105  24.8913149
  70.0081957   4.7166657  23.9743233  70.1501130   5.9026707  24.9044494
  66.9281787   2.5188018  19.8759415  67.8573847   2.6699178  19.7028383
  66.5072817   2.6072039  19.0208062  65.7270118   6.5438683  17.6457953
  65.5881204   6.1757467  18.5183891  64.9384715   7.0586322  17.4741911
  66.3218270  11.6447779   8.9883490  66.4970026  11.1735822   9.8029112
  65.6351058  12.2713545   9.2164750  67.2775334   5.9220285  15.0346791
  66.9425166   5.8821055  15.9304441  66.7779279   5.2565001  14.5617201
  61.2519578   1.3287915  20.5599372  61.1139375   0.5968154  21.1610911
  62.1624501   1.2396815  20.2783560  63.8801878   1.0407875  20.0483052
  64.5901497   0.4001067  20.0069670  63.8371186   1.2920770  20.9709232
  71.8688657   7.9775228  22.9689631  71.8101203   7.2934448  22.3020214
  72.2708175   8.7194218  22.5170257  60.8879356  14.7937142  15.7623350
  61.1275954  15.4255666  16.4402368  60.0448552  14.4425182  16.0488709
  71.8706064   5.9414812  21.2003611  70.9832843   5.6040734  21.3230009
  72.4404615   5.2097843  21.4372376  65.4007218  10.6016264  18.1664854
  65.3277389  11.4071236  18.6784158  64.9584611  10.8008230  17.3412875
  65.1896997   9.8388034  11.6767675  64.4064519  10.3809715  11.7705900
  65.8889742  10.3562014  12.0761916  67.8605901  10.5003098  20.3223012
  68.5733873  11.1350563  20.2498914  67.3695930  10.5966964  19.5063014
  62.9117815   8.2497542  21.1428583  63.6127274   8.8834025  21.2957977
  62.4412930   8.5912273  20.3824222  67.6726274  10.8401842  13.0709304
  67.8548669  10.0223498  13.5337056  68.4959260  11.0569535  12.6334194
  68.0068440   9.7670028  10.3324352  68.5356206   9.2562482   9.7194514
  68.2696660   9.4512558  11.1969885  58.5085533   7.7833897  18.0759686
  59.0938969   7.0377585  18.2087590  58.3110371   8.0937854  18.9596350
  61.3624188  10.8185144  13.0922128  60.6934563  11.3031272  12.6086168
  61.2237058  11.0654365  14.0065507  65.5029456  12.8528888  19.6904787
  66.0547765  13.0160509  20.4553872  65.8435650  13.4433326  19.0184811
  70.3540331   7.6790145  25.5453441  70.8980235   8.2920104  25.0508396
  69.7727176   8.2369724  26.0620454  68.6397844  10.8010863  16.6768469
  68.5148983  10.0000603  16.1679414  69.2976935  11.2957057  16.1882439
  70.7032752   8.6019883  18.3048019  69.7563088   8.4825235  18.2326346
  71.0515525   7.7142381  18.3874280  67.7079185   8.3972600  14.5052371
  67.5604148   7.4689307  14.6859941  68.5332679   8.4192690  14.0209446
  71.3113307   9.2201158  15.5917244  72.2359855   9.0144020  15.4541695
  71.1428611   8.9717559  16.5006585  71.1008624   9.7386826  10.9479335
  71.2745501   9.1733248  10.1953188  71.5937515  10.5387721  10.7658825
  56.9185583   1.7501495  19.0142894  56.3739051   2.5261303  19.1463168
  57.7964933   2.0972299  18.8562016  72.0883796   9.0553590   8.0476234
  72.7834701   9.6760283   8.2663548  72.4306946   8.2048941   8.3228611
  57.7051605   0.8771391  21.9073051  56.9633341   1.0254026  22.4937681
  57.3844349   1.1379657  21.0439800  65.6495268  10.4187369  21.7053441
  65.9582394  10.1736516  22.5776141  66.4470750  10.6234008  21.2172311
  65.6715880  12.5725279  13.9358818  65.2320870  12.0801658  14.6291674
  66.4223997  12.0298247  13.6950893  63.1189752   8.1163288  16.0081119
  62.4969761   7.4533993  15.7083347  63.7894619   8.1424420  15.3254767
  73.6769125   7.1386199  24.8814762  72.8864669   7.1210338  24.3419262
  73.4402480   7.6774493  25.6363799  75.2985197   6.4075607  22.4389512
  75.0070005   6.7705588  23.2752973  74.6857328   5.6942616  22.2602844
  66.4484155   4.5493901  25.7568037  67.3687165   4.7272500  25.9508083
  66.4133739   3.6049946  25.6047736  59.4446228   2.4594935  18.3990818
  59.6632238   3.3912043  18.4178852  59.8572002   2.1002910  19.1845622
  64.1805363   1.4625280  26.6058628  63.6972445   2.2625640  26.8122517
  64.2666302   1.4733225  25.6526072  60.1078701   5.3529815  18.6427062
  61.0621954   5.3213757  18.5756994  59.9091224   4.8920438  19.4577288
  60.6978083   3.9230931  21.2097860  61.5170972   4.4175009  21.2332697
  60.9714891   3.0062899  21.1815427  58.4628930  10.8949434  15.6597260
  58.3283398  10.1349835  15.0935258  58.0460992  11.6190334  15.1926049
  61.6198056  11.7918751  15.8715703  61.5030440  12.7364184  15.7694393
  60.7990502  11.4892313  16.2601502  55.9512997  -1.7430935  21.9090057
  56.5971861  -2.2531981  22.3977282  55.7430148  -1.0062254  22.4833482
  68.4766389   5.3249912  27.4082197  69.3457549   5.4990564  27.0468832
  67.9973141   6.1444329  27.2857927  62.6452570  12.4447013  19.0871631
  63.5479816  12.4770623  19.4038126  62.4189940  11.5147464  19.1017967
  64.4006172  11.1978000  15.7481710  63.4501803  11.1979861  15.6346082
  64.7038658  10.4510734  15.2317744  80.1358865  17.0338538  16.8127472
  80.7737275  16.9145285  16.1090812  80.0179708  17.9819382  16.8715424
  76.9448571  16.9865966  16.7488997  76.6067083  16.8707031  15.8609532
  77.8138340  16.5857131  16.7290003  72.8035387  18.8401443  12.7385888
  72.2400252  18.7491380  11.9702176  72.6887782  18.0201347  13.2188380
  77.4268354  18.1400818  22.7075202  77.4156995  17.7453616  21.8355706
  77.5888994  17.4066891  23.3008974  70.3499819  20.3352634  15.5770108
  71.1421111  19.9943459  15.1616408  70.5896469  20.4447609  16.4972262
  78.3834946  22.5072410   8.0500353  77.7322926  23.0926491   7.6634366
  79.1779309  23.0378605   8.1095390  72.3090573  19.5961547   8.4487487
  73.0821449  19.0490535   8.3100363  72.6615972  20.4605797   8.6601948
  74.1475616  20.9237930  21.6554386  73.8565482  21.8283561  21.5401053
  74.7832600  20.9654457  22.3698456  75.0731822  18.3014778  18.2455746
  75.6695395  18.0770801  17.5312709  75.1306794  17.5599524  18.8481194
  74.6456851  15.7554214   6.0805937  74.8982372  15.2335735   5.3189400
  73.7081410  15.5920359   6.1832621  79.6900134  14.7589992  13.8880680
  80.4763223  14.3409415  13.5371097  79.9538838  15.6636084  14.0562329
  79.8610211  20.1962842   8.5869337  79.2256044  20.2697469   9.2990242
  79.5307617  20.7856441   7.9088416  85.0908561  14.6965225  14.7913659
  85.8233733  14.1264442  15.0251488  84.3347916  14.3086826  15.2320164
  74.3653140  17.6582320   8.2830312  74.2489398  16.9827223   8.9511396
  74.4755399  17.1714693   7.4662465  76.7084681  17.1192467  11.9877001
  76.3442888  16.5923088  12.6989923  77.5651796  16.7290936  11.8143487
  82.6133981   8.4086799  19.2508267  82.2817306   9.2782210  19.0269482
  82.0179595   8.0923083  19.9302298  79.1065501  20.6099345  18.6504180
  78.8066224  21.5124384  18.5419987  78.7616560  20.3431528  19.5025333
  72.5577982  17.0613142  14.6840884  71.6328479  16.9289356  14.8918576
  72.8062395  17.8407361  15.1810827  82.5062644  13.1281885  16.3301617
  81.5979522  13.0597294  16.0360378  82.4550240  13.6053830  17.1583443
  76.3279388  14.6040024   7.9685016  76.2079014  15.0497075   8.8070497
  75.6331977  14.9525341   7.4098555  69.9186793  16.7046416  15.5184674
  70.0479174  16.9580895  16.4324085  69.2384245  17.2974124  15.1989329
  74.0886280  27.3743666  11.6175148  74.0110310  28.3251491  11.6963628
  73.4847924  27.0289538  12.2750074  76.5803510  14.5471531  24.2736515
  75.8036844  15.1065451  24.2639379  77.2194073  15.0328314  24.7951385
  84.3724291  11.3298324  18.1079491  83.7298671  11.6230857  17.4619286
  83.8679219  11.2151244  18.9132688  74.8349883  17.3556984  23.8354482
  75.5764567  17.8942028  23.5589305  74.1286868  17.9823273  23.9926033
  80.3105222  19.4986125  22.4326643  80.7188578  19.0568535  21.6881275
  79.5882484  18.9238752  22.6860836  76.6636292  14.4358732  19.8060200
  77.5097487  14.8598145  19.9494849  76.6034930  13.7792356  20.4998763
  80.6334037  20.0587315  16.1878932  80.0042899  20.2233030  15.4855000
  80.2459699  20.4728925  16.9589896  84.5123269  20.9941753  13.5423296
  83.8274307  21.3740655  12.9920329  84.5967118  21.6037080  14.2755244
  79.8135738  12.0963100  21.4641374  79.5696669  12.8505160  20.9275649
  80.0895668  12.4748448  22.2988621  81.7674200  18.6401712  20.1418639
  81.9791096  19.2833472  19.4653020  81.7203949  17.8064029  19.6740569
  79.3700429  11.2519533  17.0455211  78.5084908  11.5500787  17.3371949
  79.3962864  11.4689932  16.1136244  76.1861999  19.7961724  13.4529017
  76.6500344  20.0749427  12.6633640  75.9218797  18.8945168  13.2702108
  73.0786080  19.3433205  16.3908780  73.6487437  19.7720473  15.7526265
  73.6694192  19.0615790  17.0892966  75.1230885  15.9184876  10.2618582
  75.8254928  16.3705920  10.7292509  74.7911513  15.2768695  10.8898475
  73.5711246  14.5096633  24.6369792  72.9409907  15.1912913  24.8705188
  73.4647334  14.3979714  23.6922930  68.8656219  14.1768429  15.5635716
  68.0755273  14.4325957  15.0875826  69.3567466  14.9916766  15.6687756
  82.8820028  21.5173668  18.3140997  83.7037472  21.1153855  18.0323678
  82.8782431  21.4141902  19.2657112  70.8170964  14.5413008  12.5219193
  70.0202127  14.6531702  13.0402688  70.5896556  14.8799660  11.6560083
  76.6476632  21.0657711  20.4701707  76.7121064  21.5278118  21.3059879
  75.9387556  20.4355076  20.5984017  67.1493922  14.4298919  17.9950707
  67.4001960  15.3145929  18.2608283  67.6853470  14.2503521  17.2225798
  76.3624649  22.7325819  10.3380687  76.2270324  23.5777354  10.7665535
  76.9034462  22.9345096   9.5746621  72.8491989   8.8117398  26.9995043
  72.4558935   8.2583597  27.6742687  73.6658129   9.1227977  27.3901560
  69.8154047  20.2501257  10.9108613  70.3278567  21.0444507  11.0614177
  70.4676760  19.5527547  10.8442214  71.6248931  23.3667013  12.9931366
  71.8015560  24.2884978  12.8052350  72.4205765  23.0525432  13.4225746
  75.7659950  10.2275277  24.5915299  76.5069663  10.8282431  24.5119762
  75.9977873   9.4852915  24.0333342  70.9101288  15.4131645  22.8693529
  70.7954803  14.5116902  23.1700628  70.0545806  15.6595341  22.5178345
  77.9893126  23.3549385  24.4681030  77.5456980  22.5685764  24.1501934
  78.6510339  23.5428536  23.8024920  72.7480247  24.8845187  18.9941708
  73.2987672  24.7562250  18.2218702  71.9091723  25.1840076  18.6436601
  80.0874364  23.6352185  22.4962431  80.0692839  24.4561066  22.0042700
  81.0094284  23.5106260  22.7212572  76.5447418  21.1496314  23.3385939
  77.0775755  20.3884603  23.1085247  76.0161499  20.8569966  24.0810094
  79.7117113   6.2556380  18.8679581  79.3681382   7.1458022  18.7918692
  80.0796076   6.0658038  18.0049166  67.7802964  18.5789911  11.6868183
  68.6178186  18.9886919  11.4701891  67.9581231  17.6389353  11.6568377
  77.2614507  11.0914692  12.4337254  76.4056103  10.7021543  12.2542893
  77.6741458  11.1706653  11.5737040  78.7913653   8.6261036  16.8328814
  78.2878449   8.5891171  16.0196619  79.0844260   9.5353778  16.8925471
  75.0356539   8.7099765  15.8394996  75.9009536   8.5142574  15.4800885
  75.1034048   8.4810117  16.7664353  77.9100131  20.2782307  10.8504751
  77.3821492  19.5435066  10.5377989  77.4087633  21.0556983  10.6044720
  82.8892977  18.4731327  15.9671798  82.2316651  19.1630589  16.0551926
  83.6933376  18.8627759  16.3105784  72.6418858  10.9401973  13.2111363
  73.2162610  10.7177155  12.4784556  73.2289841  11.0090668  13.9639964
  81.6998436  16.8275700  14.0175739  82.2130317  17.4605692  14.5197449
  82.3499659  16.2276896  13.6519099  72.9688445  12.9706434   7.2307248
  72.1325758  13.3081121   7.5516523  72.8293215  12.8355414   6.2934385
  74.9441526   7.8143222  11.9386432  74.2905938   7.4992239  11.3143047
  74.9022000   7.1918963  12.6646255  78.9620810  26.8060024   6.7736410
  78.2882509  27.1091721   7.3821368  79.3486632  27.6089105   6.4241867
  78.1779266  14.3025156  16.2634080  77.2601828  14.5240103  16.1055768
  78.5939410  14.3771466  15.4045787  78.9614314  15.7016571  11.3936760
  79.7086133  16.2137969  11.0843882  79.2305904  15.3800624  12.2541154
  77.2340964  18.1975112   8.3763714  76.3252184  17.9134145   8.4736184
  77.2636048  18.6174191   7.5167021  82.4660232  21.8081702  12.1454882
  82.0122559  20.9672611  12.2020072  81.8354198  22.4443100  12.4829662
  81.4093151  12.7373688  13.3755549  80.6715908  12.2251074  13.7065792
  81.6619925  12.2974069  12.5638826  80.9093171  23.6458198  13.0804700
  81.2016145  24.2063255  12.3617066  81.4191792  23.9386759  13.8357859
  67.8029135  15.9180626  12.3578917  67.6053535  15.3249987  11.6329983
  67.2475799  15.6132836  13.0754855  75.7825858  15.8103733  14.4773510
  75.8374468  14.8577569  14.4015986  74.9717060  15.9663172  14.9614808
  76.9317052  19.7383856   5.7151793  76.4936482  19.0219715   5.2557430
  77.6727493  19.9659971   5.1536884  73.7218218  14.4280792  12.2363889
  72.9086084  14.7274963  12.6429081  74.2177212  14.0336481  12.9538371
  75.8726796  24.4238549  14.1698153  75.8302975  24.6499396  13.2406685
  76.7889495  24.1901924  14.3183954  79.3192430  14.8922617  21.0678782
  79.6741818  15.1194090  21.9273248  79.9664561  15.2240994  20.4456038
  73.2132293  11.9999148  17.8525123  73.8531672  11.8587907  17.1548087
  72.3809824  11.7133661  17.4763725  85.0759547  20.0817580  16.7839383
  85.5096053  19.9892869  17.6322437  85.7891127  20.0575080  16.1459399
  73.9892597  21.3001578  13.9660116  74.7833195  20.8051898  13.7642691
  73.2784289  20.7719441  13.6027822  78.8087441  23.6819674  18.3172484
  78.8624464  24.2510610  19.0850199  77.9402223  23.8521559  17.9526521
  70.2975360  15.4444660  10.0419869  69.3672949  15.3829116  10.2589831
  70.3932832  14.9220613   9.2456510  70.2160909  11.9699473  12.6298110
  70.4767727  12.8844806  12.5207271  71.0378082  11.5023915  12.7794723
  71.6885835  13.3837230  19.7996935  72.3608888  13.1754592  19.1509584
  70.8615621  13.1859316  19.3602167  85.9375096  20.1241280  19.3172268
  86.1310986  21.0287091  19.5631543  85.8375714  19.6648699  20.1510853
  77.5911407  10.0099171  21.8162596  76.9439322  10.7089121  21.7227072
  78.3612422  10.4435315  22.1838844  80.9990205  20.2748023  24.8913149
  80.8475711  20.0458575  23.9743233  80.9894884  21.2318625  24.9044494
  77.7675541  17.8479936  19.8759415  78.6967601  17.9991096  19.7028383
  77.3466571  17.9363957  19.0208062  76.5663873  21.8730600  17.6457953
  76.4274959  21.5049385  18.5183891  75.7778469  22.3878240  17.4741911
  77.1612025  26.9739697   8.9883490  77.3363781  26.5027740   9.8029112
  76.4744813  27.6005463   9.2164750  78.1169088  21.2512203  15.0346791
  77.7818921  21.2112973  15.9304441  77.6173034  20.5856919  14.5617201
  72.0913332  16.6579833  20.5599372  71.9533130  15.9260072  21.1610911
  73.0018256  16.5688733  20.2783560  74.7195633  16.3699792  20.0483052
  75.4295251  15.7292985  20.0069670  74.6764941  16.6212687  20.9709232
  82.7082411  23.3067146  22.9689631  82.6494958  22.6226366  22.3020214
  83.1101930  24.0486136  22.5170257  73.4324567  13.3565010  21.8678691
  72.8961924  12.9055749  22.5200287  72.8441275  13.4910919  21.1249155
  71.7273110  30.1229060  15.7623350  71.9669708  30.7547584  16.4402368
  70.8842307  29.7717100  16.0488709  82.7099819  21.2706730  21.2003611
  81.8226597  20.9332651  21.3230009  83.2798370  20.5389761  21.4372376
  64.3628966  17.6030821  14.5246662  65.0500006  17.2892551  13.9367677
  64.2077094  18.5072186  14.2513913  69.1663688  12.4921018  18.9531686
  69.0821877  11.8846688  18.2182096  68.3446394  12.9830036  18.9541182
  76.2400972  25.9308182  18.1664854  76.1671144  26.7363153  18.6784158
  75.7978365  26.1300148  17.3412875  76.0290752  25.1679952  11.6767675
  75.2458274  25.7101632  11.7705900  76.7283497  25.6853932  12.0761916
  79.3387402  10.9774581  14.3201881  79.8356101  10.2244544  14.0002951
  78.5674383  11.0138898  13.7545090  87.1917159  16.6814947  15.9620172
  87.1807035  17.5639662  15.5914105  86.3234539  16.3286498  15.7674709
  78.6999656  25.8295016  20.3223012  79.4127628  26.4642481  20.2498914
  78.2089684  25.9258882  19.5063014  80.4217182  19.7346269  11.8940304
  79.4873461  19.8547731  11.7245008  80.5993851  18.8318735  11.6300314
  75.9222371  13.1191964  14.0473565  75.5520158  12.5663005  14.7354471
  76.4181463  12.5150098  13.4948565  83.8089734  15.5763588  12.4290338
  84.2750186  16.4091580  12.3550641  84.2597234  15.1108570  13.1335597
  73.7511569  23.5789459  21.1428583  74.4521029  24.2125942  21.2957977
  73.2806684  23.9204191  20.3824222  81.8765965  21.9207409   9.4276490
  82.1525809  21.8064004  10.3370364  81.0070464  21.5224894   9.3888663
  81.7806397   7.9444175  16.4681240  80.8669476   8.1748402  16.6363446
  82.2099498   8.0282619  17.3195272  81.5512855  16.1334067  18.9681134
  80.8984305  16.3809974  18.3133586  81.9293235  15.3198205  18.6343611
  78.5120029  26.1693760  13.0709304  78.6942423  25.3515416  13.5337056
  79.3353015  26.3861452  12.6334194  78.8462194  25.0961945  10.3324352
  79.3749961  24.5854400   9.7194514  79.1090414  24.7804475  11.1969885
  77.6000428  16.8753878  25.4547171  76.9241065  16.7748007  26.1249546
  78.4228062  16.7193092  25.9183168  69.3479287  23.1125815  18.0759686
  69.9332724  22.3669502  18.2087590  69.1504126  23.4229771  18.9596350
  72.2017942  26.1477062  13.0922128  71.5328318  26.6323190  12.6086168
  72.0630812  26.3946282  14.0065507  63.9396942  15.6831415  16.7964129
  63.9781041  15.1495005  17.5901247  63.4337235  15.1566620  16.1775106
  76.3423211  28.1820805  19.6904787  76.8941519  28.3452427  20.4553872
  76.6829404  28.7725243  19.0184811  71.3187704  10.5295955  20.2926671
  71.3829031  11.3910786  19.8804069  71.2554824   9.9169957  19.5599030
  70.7939977  12.6019088  23.9399706  71.4212016  12.2196165  24.5537230
  69.9367896  12.3833290  24.3055398  81.1934085  23.0082063  25.5453441
  81.7373989  23.6212021  25.0508396  80.6120930  23.5661641  26.0620454
  67.5705519  14.4095517   9.8718060  67.8658961  13.5006195   9.8185114
  66.6693555  14.3883256   9.5499063  79.4791598  26.1302781  16.6768469
  79.3542738  25.3292521  16.1679414  80.1370689  26.6248974  16.1882439
  71.0999766  12.4851513  15.8545609  70.3786352  13.0987481  15.7153082
  71.8893022  13.0209278  15.7762255  81.5426507  23.9311801  18.3048019
  80.5956842  23.8117152  18.2326346  81.8909280  23.0434299  18.3874280
  73.9026080   9.8205940  22.1286261  74.4260482  10.0668237  22.8912570
  73.6838413  10.6525975  21.7089398  69.2993361  12.0909615   9.9957386
  68.9706067  11.2106993   9.8132491  69.6532732  12.0357283  10.8833775
  78.5472940  23.7264517  14.5052371  78.3997902  22.7981225  14.6859941
  79.3726433  23.7484608  14.0209446  72.4135184  12.3782584  10.3632863
  72.7531257  12.9068506   9.6411472  72.8607305  12.7162990  11.1391430
  82.1507062  24.5493076  15.5917244  83.0753609  24.3435937  15.4541695
  81.9822365  24.3009477  16.5006585  75.1078625  10.7619635  19.8135931
  74.7675445   9.9627448  20.2156611  74.4017631  11.0621346  19.2412764
  75.7595097   7.8468947  18.2663254  76.5821166   7.3729426  18.1442145
  76.0033160   8.6259431  18.7661941  74.4003331  10.8757206   8.5626156
  75.1211694  11.2538459   8.0589873  73.7768635  11.5946083   8.6661134
  73.2833676  14.5388068  16.0755233  73.1378256  14.8528371  16.9679514
  72.8058879  15.1572968  15.5226132  75.1430059  11.5290616  16.1236122
  75.1291627  10.6331709  15.7868420  75.8602487  11.5361280  16.7574409
  76.9956189  11.9627956  18.1689250  76.7373967  12.8845027  18.1673580
  76.4641230  11.5658391  18.8589714  81.9402378  25.0678743  10.9479335
  82.1139256  24.5025166  10.1953188  82.4331269  25.8679638  10.7658825
  67.7579338  17.0793413  19.0142894  67.2132806  17.8553221  19.1463168
  68.6358688  17.4264217  18.8562016  74.5466954  10.4104996  11.3923693
  74.6682866   9.4821643  11.5914580  74.2568997  10.4243682  10.4802008
  77.4158145   8.0959907  14.5290412  77.4379842   8.1599240  13.5742392
  77.8326204   7.2564415  14.7230919  82.9277550  24.3845508   8.0476234
  83.6228455  25.0052201   8.2663548  83.2700701  23.5340859   8.3228611
  68.5445360  16.2063309  21.9073051  67.8027096  16.3545944  22.4937681
  68.2238104  16.4671574  21.0439800  76.4889022  25.7479287  21.7053441
  76.7976149  25.5028434  22.5776141  77.2864504  25.9525926  21.2172311
  76.5109634  27.9017197  13.9358818  76.0714625  27.4093575  14.6291674
  77.2617751  27.3590164  13.6950893  68.9901973  24.0928738  13.9383446
  69.8159993  23.7932509  13.5582089  68.6396025  23.3236360  14.3873234
  73.9583507  23.4455206  16.0081119  73.3363516  22.7825911  15.7083347
  74.6288373  23.4716338  15.3254767  67.1910578  22.0115064  14.8972379
  66.3542487  21.5837238  14.7156380  67.1634224  22.2047507  15.8343170
  74.0308034  11.9236994  25.6013625  74.0796189  12.7999117  25.2191395
  74.5730548  11.3814387  25.0285268  84.5162880  22.4678117  24.8814762
  83.7258423  22.4502256  24.3419262  84.2796234  23.0066411  25.6363799
  84.6360755  19.3170583  22.1947491  84.6858760  19.1520591  23.1363014
  84.5274678  18.4497842  21.8045372  73.5197013  21.9959129   9.4839580
  73.6685134  22.6794593   8.8306252  74.3263457  21.9764219   9.9989035
  81.9264517  15.3001511  23.5106798  82.8274380  15.1607976  23.2190795
  82.0012492  15.4655966  24.4504975  76.2607322  12.6768366  22.3559984
  75.3910632  12.9701932  22.0842572  76.4966803  13.2608811  23.0767248
  86.1378952  21.7367525  22.4389512  85.8463760  22.0997505  23.2752973
  85.5251083  21.0234533  22.2602844  87.3374634  19.3020405  14.9592083
  88.1721525  19.7410209  15.1229643  87.4733763  18.8259058  14.1400328
  84.3866140  16.8600140  20.9069570  84.8620261  17.0527786  20.0988422
  83.4631705  16.9159325  20.6612954  71.2749646  18.0224307  10.4900649
  71.0295688  17.1186637  10.6880859  71.4445561  18.0241457   9.5480127
  78.9646356   8.8947983  19.8725404  79.4828300   9.6309010  19.5471893
  78.6101489   9.2011976  20.7072163  70.5445294  13.7552664   7.9886810
  69.8514539  13.8297019   7.3326846  70.2997046  12.9913008   8.5108327
  77.0192419  24.4907260   6.9551327  76.4466386  25.1097447   6.5021799
  77.5925213  25.0406621   7.4891249  83.0867809  13.7365900  19.1397876
  84.0385232  13.8363997  19.1610100  82.9171259  12.9444168  19.6495960
  81.1082188  10.8221483  19.3257277  80.5132120  11.1026496  18.6303766
  80.8231885  11.3115384  20.0974018  80.2389679  24.7744410   8.0859909
  81.1720352  24.7089971   8.2892785  80.1512892  25.6100677   7.6274442
  85.5655887  16.9572019  18.2540176  85.5332207  16.0188020  18.4399859
  86.1756510  17.0356056  17.5206001  85.7150375  13.7483063  18.2998459
  85.1989424  12.9641519  18.1128388  86.5990324  13.4201779  18.4644978
  91.3832436  18.0188026  17.3946212  92.1135825  17.7573314  17.9553916
  90.7739382  17.2816748  17.4348280  89.4647734  16.1595889  17.9920664
  88.7380897  16.0251854  17.3837155  89.0495020  16.4672717  18.7977382
  77.2877910  19.8785818  25.7568037  78.2080919  20.0564417  25.9508083
  77.2527493  18.9341864  25.6047736  66.5060075  15.0724412  14.6821311
  66.1862859  14.2189720  14.3895685  65.9593503  15.2872990  15.4379279
  70.2839983  17.7886853  18.3990818  70.5025992  18.7203961  18.4178852
  70.6965756  17.4294827  19.1845622  75.1567848  13.3620059  27.7893567
  75.0564575  14.3114416  27.7205658  74.9389390  13.0338298  26.9169637
  66.3748335  18.6927324  16.6514433  65.6811806  18.2781276  16.1384387
  67.1221326  18.7347860  16.0547852  75.0199118  16.7917198  26.6058628
  74.5366200  17.5917558  26.8122517  75.1060057  16.8025143  25.6526072
  68.2885077  18.6245577  14.5280448  68.2655766  18.7233265  13.5762331
  68.5985714  19.4710728  14.8497614  70.9472455  20.6821732  18.6427062
  71.9015709  20.6505675  18.5756994  70.7484979  20.2212356  19.4577288
  71.5371837  19.2522848  21.2097860  72.3564726  19.7466927  21.2332697
  71.8108645  18.3354817  21.1815427  69.3022684  26.2241352  15.6597260
  69.1677152  25.4641753  15.0935258  68.8854746  26.9482252  15.1926049
  81.2679457  17.1588137  10.7876106  81.2114659  17.6156688   9.9483738
  81.8207800  16.3978821  10.6098948  72.4591810  27.1210669  15.8715703
  72.3424194  28.0656101  15.7694393  71.6384256  26.8184230  16.2601502
  66.7906752  13.5860982  21.9090057  67.4365615  13.0759936  22.3977282
  66.5823903  14.3229664  22.4833482  79.3160144  20.6541830  27.4082197
  80.1851304  20.8282482  27.0468832  78.8366895  21.4736247  27.2857927
  73.4846324  27.7738931  19.0871631  74.3873571  27.8062541  19.4038126
  73.2583694  26.8439382  19.1017967  75.2399926  26.5269917  15.7481710
  74.2895557  26.5271779  15.6346082  75.5432412  25.7802652  15.2317744
  71.1304243  10.7328599  26.0065071  71.9935704  10.3765404  26.2168396
  70.5569653  10.3942494  26.6940475  90.9752620  32.3630456  16.8127472
  91.6131030  32.2437203  16.1090812  90.8573463  33.3111300  16.8715424
  87.7842326  32.3157884  16.7488997  87.4460837  32.1998949  15.8609532
  88.6532094  31.9149049  16.7290003  83.6429142  34.1693360  12.7385888
  83.0794007  34.0783297  11.9702176  83.5281537  33.3493265  13.2188380
  88.2662109  33.4692736  22.7075202  88.2550750  33.0745534  21.8355706
  88.4282748  32.7358808  23.3008974  81.1893574  35.6644552  15.5770108
  81.9814865  35.3235376  15.1616408  81.4290224  35.7739527  16.4972262
  89.2228700  37.8364328   8.0500353  88.5716680  38.4218408   7.6634366
  90.0173063  38.3670523   8.1095390  83.1484328  34.9253465   8.4487487
  83.9215204  34.3782452   8.3100363  83.5009726  35.7897714   8.6601948
  84.9869370  36.2529847  21.6554386  84.6959236  37.1575478  21.5401053
  85.6226354  36.2946375  22.3698456  85.9125577  33.6306696  18.2455746
  86.5089149  33.4062718  17.5312709  85.9700548  32.8891441  18.8481194
  85.4850605  31.0846131   6.0805937  85.7376126  30.5627652   5.3189400
  84.5475164  30.9212277   6.1832621  90.5293888  30.0881910  13.8880680
  91.3156977  29.6701333  13.5371097  90.7932592  30.9928002  14.0562329
  90.7003966  35.5254760   8.5869337  90.0649798  35.5989386   9.2990242
  90.3701372  36.1148359   7.9088416  95.9302315  30.0257143  14.7913659
  96.6627487  29.4556360  15.0251488  95.1741671  29.6378743  15.2320164
  85.2046894  32.9874237   8.2830312  85.0883152  32.3119141   8.9511396
  85.3149154  32.5006611   7.4662465  87.5478435  32.4484384  11.9877001
  87.1836642  31.9215005  12.6989923  88.4045551  32.0582853  11.8143487
  93.4527736  23.7378717  19.2508267  93.1211060  24.6074128  19.0269482
  92.8573349  23.4215001  19.9302298  89.9459255  35.9391263  18.6504180
  89.6459978  36.8416302  18.5419987  89.6010315  35.6723446  19.5025333
  83.3971737  32.3905060  14.6840884  82.4722233  32.2581274  14.8918576
  83.6456150  33.1699279  15.1810827  93.3456399  28.4573803  16.3301617
  92.4373276  28.3889212  16.0360378  93.2943995  28.9345748  17.1583443
  87.1673143  29.9331941   7.9685016  87.0472768  30.3788992   8.8070497
  86.4725731  30.2817259   7.4098555  80.7580548  32.0338333  15.5184674
  80.8872929  32.2872812  16.4324085  80.0777999  32.6266041  15.1989329
  84.9280035  42.7035583  11.6175148  84.8504065  43.6543408  11.6963628
  84.3241679  42.3581456  12.2750074  87.4197265  29.8763449  24.2736515
  86.6430599  30.4357369  24.2639379  88.0587828  30.3620232  24.7951385
  95.2118045  26.6590241  18.1079491  94.5692426  26.9522775  17.4619286
  94.7072974  26.5443162  18.9132688  85.6743637  32.6848902  23.8354482
  86.4158321  33.2233946  23.5589305  84.9680623  33.3115191  23.9926033
  91.1498977  34.8278042  22.4326643  91.5582333  34.3860453  21.6881275
  90.4276238  34.2530670  22.6860836  87.5030047  29.7650649  19.8060200
  88.3491242  30.1890063  19.9494849  87.4428684  29.1084274  20.4998763
  91.4727791  35.3879233  16.1878932  90.8436654  35.5524947  15.4855000
  91.0853453  35.8020843  16.9589896  95.3517023  36.3233671  13.5423296
  94.6668061  36.7032572  12.9920329  95.4360873  36.9328998  14.2755244
  90.6529492  27.4255018  21.4641374  90.4090424  28.1797078  20.9275649
  90.9289423  27.8040365  22.2988621  92.6067955  33.9693630  20.1418639
  92.8184850  34.6125390  19.4653020  92.5597703  33.1355947  19.6740569
  90.2094184  26.5811451  17.0455211  89.3478663  26.8792704  17.3371949
  90.2356618  26.7981850  16.1136244  87.0255753  35.1253641  13.4529017
  87.4894099  35.4041344  12.6633640  86.7612551  34.2237086  13.2702108
  83.9179834  34.6725123  16.3908780  84.4881191  35.1012391  15.7526265
  84.5087946  34.3907707  17.0892966  85.9624639  31.2476794  10.2618582
  86.6648683  31.6997837  10.7292509  85.6305268  30.6060612  10.8898475
  84.4105001  29.8388550  24.6369792  83.7803661  30.5204831  24.8705188
  84.3041089  29.7271632  23.6922930  79.7049973  29.5060346  15.5635716
  78.9149027  29.7617875  15.0875826  80.1961221  30.3208684  15.6687756
  93.7213783  36.8465585  18.3140997  94.5431227  36.4445773  18.0323678
  93.7176186  36.7433820  19.2657112  81.6564719  29.8704925  12.5219193
  80.8595882  29.9823620  13.0402688  81.4290311  30.2091578  11.6560083
  87.4870386  36.3949629  20.4701707  87.5514819  36.8570036  21.3059879
  86.7781310  35.7646994  20.5984017  77.9887676  29.7590837  17.9950707
  78.2395715  30.6437847  18.2608283  78.5247225  29.5795438  17.2225798
  87.2018404  38.0617736  10.3380687  87.0664079  38.9069272  10.7665535
  87.7428216  38.2637014   9.5746621  83.6885744  24.1409316  26.9995043
  83.2952689  23.5875515  27.6742687  84.5051884  24.4519895  27.3901560
  80.6547801  35.5793174  10.9108613  81.1672322  36.3736424  11.0614177
  81.3070514  34.8819465  10.8442214  82.4642686  38.6958931  12.9931366
  82.6409314  39.6176895  12.8052350  83.2599519  38.3817350  13.4225746
  86.6053705  25.5567195  24.5915299  87.3463418  26.1574348  24.5119762
  86.8371627  24.8144833  24.0333342  81.7495043  30.7423562  22.8693529
  81.6348558  29.8408820  23.1700628  80.8939560  30.9887259  22.5178345
  88.8286880  38.6841303  24.4681030  88.3850734  37.8977681  24.1501934
  89.4904094  38.8720453  23.8024920  83.5874001  40.2137104  18.9941708
  84.1381427  40.0854168  18.2218702  82.7485477  40.5131993  18.6436601
  90.9268118  38.9644103  22.4962431  90.9086594  39.7852984  22.0042700
  91.8488038  38.8398178  22.7212572  87.3841172  36.4788232  23.3385939
  87.9169509  35.7176520  23.1085247  86.8555254  36.1861884  24.0810094
  90.5510867  21.5848298  18.8679581  90.2075137  22.4749940  18.7918692
  90.9189830  21.3949956  18.0049166  78.6196718  33.9081829  11.6868183
  79.4571940  34.3178837  11.4701891  78.7974986  32.9681271  11.6568377
  88.1008261  26.4206610  12.4337254  87.2449858  26.0313460  12.2542893
  88.5135213  26.4998571  11.5737040  89.6307408  23.9552953  16.8328814
  89.1272203  23.9183088  16.0196619  89.9238015  24.8645696  16.8925471
  85.8750294  24.0391683  15.8394996  86.7403290  23.8434492  15.4800885
  85.9427803  23.8102035  16.7664353  88.7493885  35.6074225  10.8504751
  88.2215247  34.8726984  10.5377989  88.2481388  36.3848901  10.6044720
  93.7286731  33.8023245  15.9671798  93.0710406  34.4922506  16.0551926
  94.5327130  34.1919677  16.3105784  83.4812613  26.2693891  13.2111363
  84.0556365  26.0469072  12.4784556  84.0683595  26.3382585  13.9639964
  92.5392190  32.1567618  14.0175739  93.0524072  32.7897610  14.5197449
  93.1893414  31.5568813  13.6519099  83.8082200  28.2998352   7.2307248
  82.9719512  28.6373038   7.5516523  83.6686970  28.1647332   6.2934385
  85.7835281  23.1435140  11.9386432  85.1299693  22.8284157  11.3143047
  85.7415755  22.5210880  12.6646255  89.8014564  42.1351942   6.7736410
  89.1276263  42.4383639   7.3821368  90.1880386  42.9381022   6.4241867
  89.0173021  29.6317073  16.2634080  88.0995582  29.8532020  16.1055768
  89.4333164  29.7063384  15.4045787  89.8008069  31.0308489  11.3936760
  90.5479888  31.5429886  11.0843882  90.0699658  30.7092542  12.2541154
  88.0734719  33.5267030   8.3763714  87.1645938  33.2426063   8.4736184
  88.1029803  33.9466108   7.5167021  93.3053986  37.1373619  12.1454882
  92.8516313  36.2964529  12.2020072  92.6747953  37.7735018  12.4829662
  92.2486906  28.0665605  13.3755549  91.5109663  27.5542991  13.7065792
  92.5013679  27.6265987  12.5638826  91.7486925  38.9750116  13.0804700
  92.0409900  39.5355173  12.3617066  92.2585546  39.2678677  13.8357859
  78.6422889  31.2472544  12.3578917  78.4447289  30.6541905  11.6329983
  78.0869553  30.9424754  13.0754855  86.6219613  31.1395650  14.4773510
  86.6768223  30.1869487  14.4015986  85.8110815  31.2955089  14.9614808
  87.7710807  35.0675773   5.7151793  87.3330237  34.3511632   5.2557430
  88.5121247  35.2951888   5.1536884  84.5611973  29.7572710  12.2363889
  83.7479838  30.0566881  12.6429081  85.0570967  29.3628399  12.9538371
  86.7120551  39.7530467  14.1698153  86.6696729  39.9791313  13.2406685
  87.6283250  39.5193842  14.3183954  90.1586184  30.2214535  21.0678782
  90.5135572  30.4486008  21.9273248  90.8058316  30.5532911  20.4456038
  84.0526048  27.3291066  17.8525123  84.6925427  27.1879825  17.1548087
  83.2203578  27.0425579  17.4763725  95.9153301  35.4109497  16.7839383
  96.3489808  35.3184787  17.6322437  96.6284882  35.3866998  16.1459399
  84.8286351  36.6293496  13.9660116  85.6226950  36.1343816  13.7642691
  84.1178044  36.1011359  13.6027822  89.6481196  39.0111592  18.3172484
  89.7018218  39.5802528  19.0850199  88.7795977  39.1813477  17.9526521
  81.1369115  30.7736578  10.0419869  80.2066703  30.7121033  10.2589831
  81.2326587  30.2512531   9.2456510  81.0554664  27.2991391  12.6298110
  81.3161481  28.2136724  12.5207271  81.8771836  26.8315833  12.7794723
  82.5279589  28.7129148  19.7996935  83.2002643  28.5046510  19.1509584
  81.7009376  28.5151234  19.3602167  96.7768851  35.4533198  19.3172268
  96.9704741  36.3579009  19.5631543  96.6769469  34.9940617  20.1510853
  88.4305161  25.3391089  21.8162596  87.7833076  26.0381038  21.7227072
  89.2006177  25.7727233  22.1838844  91.8383959  35.6039941  24.8913149
  91.6869466  35.3750493  23.9743233  91.8288639  36.5610542  24.9044494
  88.6069296  33.1771854  19.8759415  89.5361356  33.3283013  19.7028383
  88.1860326  33.2655874  19.0208062  87.4057627  37.2022518  17.6457953
  87.2668713  36.8341302  18.5183891  86.6172224  37.7170157  17.4741911
  88.0005779  42.3031614   8.9883490  88.1757535  41.8319658   9.8029112
  87.3138567  42.9297381   9.2164750  88.9562843  36.5804121  15.0346791
  88.6212675  36.5404891  15.9304441  88.4566788  35.9148837  14.5617201
  82.9307087  31.9871751  20.5599372  82.7926884  31.2551990  21.1610911
  83.8412010  31.8980651  20.2783560  85.5589387  31.6991710  20.0483052
  86.2689006  31.0584902  20.0069670  85.5158695  31.9504605  20.9709232
  93.5476166  38.6359063  22.9689631  93.4888712  37.9518284  22.3020214
  93.9495684  39.3778053  22.5170257  84.2718321  28.6856928  21.8678691
  83.7355678  28.2347666  22.5200287  83.6835030  28.8202837  21.1249155
  82.5666865  45.4520977  15.7623350  82.8063463  46.0839501  16.4402368
  81.7236061  45.1009017  16.0488709  93.5493573  36.5998647  21.2003611
  92.6620352  36.2624569  21.3230009  94.1192124  35.8681679  21.4372376
  75.2022720  32.9322739  14.5246662  75.8893760  32.6184469  13.9367677
  75.0470849  33.8364104  14.2513913  80.0057442  27.8212936  18.9531686
  79.9215631  27.2138605  18.2182096  79.1840149  28.3121954  18.9541182
  87.0794727  41.2600100  18.1664854  87.0064898  42.0655071  18.6784158
  86.6372120  41.4592065  17.3412875  86.8684506  40.4971870  11.6767675
  86.0852028  41.0393550  11.7705900  87.5677251  41.0145849  12.0761916
  90.1781156  26.3066499  14.3201881  90.6749856  25.5536461  14.0002951
  89.4068138  26.3430816  13.7545090  98.0310914  32.0106865  15.9620172
  98.0200790  32.8931580  15.5914105  97.1628293  31.6578416  15.7674709
  89.5393410  41.1586934  20.3223012  90.2521382  41.7934399  20.2498914
  89.0483439  41.2550800  19.5063014  91.2610937  35.0638186  11.8940304
  90.3267216  35.1839649  11.7245008  91.4387605  34.1610653  11.6300314
  86.7616125  28.4483882  14.0473565  86.3913913  27.8954923  14.7354471
  87.2575217  27.8442016  13.4948565  94.6483488  30.9055506  12.4290338
  95.1143941  31.7383497  12.3550641  95.0990989  30.4400487  13.1335597
  84.5905324  38.9081377  21.1428583  85.2914783  39.5417860  21.2957977
  84.1200439  39.2496109  20.3824222  92.7159719  37.2499327   9.4276490
  92.9919563  37.1355922  10.3370364  91.8464218  36.8516812   9.3888663
  92.6200151  23.2736093  16.4681240  91.7063231  23.5040319  16.6363446
  93.0493253  23.3574537  17.3195272  92.3906610  31.4625985  18.9681134
  91.7378060  31.7101892  18.3133586  92.7686989  30.6490123  18.6343611
  89.3513783  41.4985678  13.0709304  89.5336178  40.6807334  13.5337056
  90.1746769  41.7153370  12.6334194  89.6855949  40.4253863  10.3324352
  90.2143715  39.9146318   9.7194514  89.9484169  40.1096393  11.1969885
  88.4394183  32.2045796  25.4547171  87.7634820  32.1039925  26.1249546
  89.2621816  32.0485009  25.9183168  80.1873042  38.4417732  18.0759686
  80.7726478  37.6961420  18.2087590  79.9897880  38.7521689  18.9596350
  83.0411697  41.4768980  13.0922128  82.3722072  41.9615107  12.6086168
  82.9024567  41.7238200  14.0065507  74.7790696  31.0123332  16.7964129
  74.8174796  30.4786923  17.5901247  74.2730989  30.4858538  16.1775106
  87.1816965  43.5112723  19.6904787  87.7335274  43.6744345  20.4553872
  87.5223159  44.1017161  19.0184811  82.1581459  25.8587873  20.2926671
  82.2222785  26.7202704  19.8804069  82.0948579  25.2461875  19.5599030
  81.6333731  27.9311005  23.9399706  82.2605770  27.5488083  24.5537230
  80.7761650  27.7125207  24.3055398  92.0327840  38.3373981  25.5453441
  92.5767744  38.9503939  25.0508396  91.4514685  38.8953559  26.0620454
  78.4099274  29.7387435   9.8718060  78.7052715  28.8298113   9.8185114
  77.5087310  29.7175174   9.5499063  90.3185353  41.4594699  16.6768469
  90.1936492  40.6584438  16.1679414  90.9764444  41.9540892  16.1882439
  81.9393521  27.8143431  15.8545609  81.2180107  28.4279399  15.7153082
  82.7286777  28.3501196  15.7762255  92.3820261  39.2603719  18.3048019
  91.4350597  39.1409070  18.2326346  92.7303034  38.3726217  18.3874280
  84.7419835  25.1497858  22.1286261  85.2654236  25.3960154  22.8912570
  84.5232168  25.9817892  21.7089398  80.1387116  27.4201532   9.9957386
  79.8099822  26.5398911   9.8132491  80.4926486  27.3649201  10.8833775
  89.3866694  39.0556435  14.5052371  89.2391657  38.1273142  14.6859941
  90.2120188  39.0776526  14.0209446  83.2528939  27.7074502  10.3632863
  83.5925011  28.2360423   9.6411472  83.7001059  28.0454908  11.1391430
  92.9900816  39.8784994  15.5917244  93.9147364  39.6727855  15.4541695
  92.8216120  39.6301395  16.5006585  85.9472380  26.0911553  19.8135931
  85.6069200  25.2919366  20.2156611  85.2411386  26.3913264  19.2412764
  86.5988851  23.1760865  18.2663254  87.4214921  22.7021343  18.1442145
  86.8426915  23.9551349  18.7661941  85.2397086  26.2049124   8.5626156
  85.9605448  26.5830376   8.0589873  84.6162390  26.9238000   8.6661134
  84.1227430  29.8679986  16.0755233  83.9772011  30.1820289  16.9679514
  83.6452634  30.4864886  15.5226132  85.9823813  26.8582534  16.1236122
  85.9685382  25.9623627  15.7868420  86.6996241  26.8653198  16.7574409
  87.8349944  27.2919874  18.1689250  87.5767722  28.2136945  18.1673580
  87.3034984  26.8950309  18.8589714  92.7796132  40.3970661  10.9479335
  92.9533010  39.8317084  10.1953188  93.2725024  41.1971556  10.7658825
  78.5973092  32.4085330  19.0142894  78.0526560  33.1845138  19.1463168
  79.4752442  32.7556135  18.8562016  85.3860709  25.7396914  11.3923693
  85.5076620  24.8113560  11.5914580  85.0962751  25.7535600  10.4802008
  88.2551899  23.4251825  14.5290412  88.2773596  23.4891158  13.5742392
  88.6719958  22.5856333  14.7230919  93.7671305  39.7137426   8.0476234
  94.4622210  40.3344118   8.2663548  94.1094455  38.8632777   8.3228611
  79.3839114  31.5355226  21.9073051  78.6420850  31.6837862  22.4937681
  79.0631858  31.7963492  21.0439800  87.3282777  41.0771205  21.7053441
  87.6369903  40.8320351  22.5776141  88.1258259  41.2817843  21.2172311
  87.3503389  43.2309114  13.9358818  86.9108379  42.7385493  14.6291674
  88.1011506  42.6882082  13.6950893  79.8295728  39.4220655  13.9383446
  80.6553748  39.1224427  13.5582089  79.4789780  38.6528278  14.3873234
  84.7977261  38.7747123  16.0081119  84.1757270  38.1117828  15.7083347
  85.4682128  38.8008255  15.3254767  78.0304333  37.3406982  14.8972379
  77.1936241  36.9129156  14.7156380  78.0027978  37.5339425  15.8343170
  84.8701788  27.2528911  25.6013625  84.9189944  28.1291034  25.2191395
  85.4124303  26.7106305  25.0285268  95.3556634  37.7970035  24.8814762
  94.5652178  37.7794174  24.3419262  95.1189989  38.3358328  25.6363799
  95.4754509  34.6462501  22.1947491  95.5252514  34.4812509  23.1363014
  95.3668433  33.7789760  21.8045372  84.3590768  37.3251047   9.4839580
  84.5078888  38.0086511   8.8306252  85.1657211  37.3056137   9.9989035
  92.7658272  30.6293429  23.5106798  93.6668134  30.4899894  23.2190795
  92.8406246  30.7947884  24.4504975  87.1001077  28.0060284  22.3559984
  86.2304386  28.2993850  22.0842572  87.3360557  28.5900729  23.0767248
  96.9772706  37.0659443  22.4389512  96.6857514  37.4289423  23.2752973
  96.3644837  36.3526451  22.2602844  98.1768388  34.6312322  14.9592083
  99.0115280  35.0702126  15.1229643  98.3127517  34.1550976  14.1400328
  95.2259894  32.1892057  20.9069570  95.7014016  32.3819704  20.0988422
  94.3025460  32.2451243  20.6612954  82.1143401  33.3516224  10.4900649
  81.8689443  32.4478554  10.6880859  82.2839315  33.3533375   9.5480127
  89.8040111  24.2239901  19.8725404  90.3222055  24.9600928  19.5471893
  89.4495244  24.5303894  20.7072163  81.3839048  29.0844582   7.9886810
  80.6908293  29.1588937   7.3326846  81.1390800  28.3204926   8.5108327
  90.0552705  20.6440183  15.3926301  90.3354459  19.9763372  16.0186727
  90.8403312  20.8369279  14.8800965  87.8586173  39.8199177   6.9551327
  87.2860141  40.4389364   6.5021799  88.4318967  40.3698539   7.4891249
  93.9261563  29.0657817  19.1397876  94.8778986  29.1655915  19.1610100
  93.7565014  28.2736086  19.6495960  91.9475943  26.1513401  19.3257277
  91.3525875  26.4318413  18.6303766  91.6625639  26.6407301  20.0974018
  91.0783433  40.1036327   8.0859909  92.0114106  40.0381889   8.2892785
  90.9906646  40.9392594   7.6274442  96.4049641  32.2863937  18.2540176
  96.3725961  31.3479938  18.4399859  97.0150265  32.3647974  17.5206001
  96.5544130  29.0774980  18.2998459  96.0383178  28.2933437  18.1128388
  97.4384078  28.7493697  18.4644978 102.2226191  33.3479944  17.3946212
 102.9529579  33.0865232  17.9553916 101.6133136  32.6108666  17.4348280
 100.3041488  31.4887806  17.9920664  99.5774652  31.3543771  17.3837155
  99.8888775  31.7964635  18.7977382  88.1271664  35.2077736  25.7568037
  89.0474674  35.3856335  25.9508083  88.0921247  34.2633781  25.6047736
  77.3453829  30.4016330  14.6821311  77.0256614  29.5481638  14.3895685
  76.7987258  30.6164908  15.4379279  81.1233737  33.1178771  18.3990818
  81.3419747  34.0495879  18.4178852  81.5359511  32.7586745  19.1845622
  85.9961602  28.6911977  27.7893567  85.8958329  29.6406333  27.7205658
  85.7783144  28.3630215  26.9169637  77.2142089  34.0219241  16.6514433
  76.5205561  33.6073194  16.1384387  77.9615080  34.0639778  16.0547852
  85.8592872  32.1209115  26.6058628  85.3759954  32.9209475  26.8122517
  85.9453811  32.1317060  25.6526072  79.1278832  33.9537495  14.5280448
  79.1049520  34.0525182  13.5762331  79.4379468  34.8002646  14.8497614
  81.7866210  36.0113650  18.6427062  82.7409463  35.9797592  18.5756994
  81.5878733  35.5504274  19.4577288  82.3765592  34.5814766  21.2097860
  83.1958481  35.0758845  21.2332697  82.6502400  33.6646734  21.1815427
  80.1416439  41.5533270  15.6597260  80.0070907  40.7933670  15.0935258
  79.7248501  42.2774169  15.1926049  92.1073212  32.4880054  10.7876106
  92.0508413  32.9448606   9.9483738  92.6601554  31.7270739  10.6098948
  83.2985565  42.4502587  15.8715703  83.1817949  43.3948019  15.7694393
  82.4778011  42.1476148  16.2601502  77.6300506  28.9152900  21.9090057
  78.2759370  28.4051854  22.3977282  77.4217657  29.6521582  22.4833482
  90.1553898  35.9833747  27.4082197  91.0245058  36.1574400  27.0468832
  89.6760650  36.8028164  27.2857927  84.3240079  43.1030848  19.0871631
  85.2267325  43.1354459  19.4038126  84.0977449  42.1731299  19.1017967
  86.0793681  41.8561835  15.7481710  85.1289312  41.8563697  15.6346082
  86.3826167  41.1094570  15.2317744  81.9697997  26.0620517  26.0065071
  82.8329459  25.7057322  26.2168396  81.3963408  25.7234412  26.6940475
 101.8146374  47.6922373  16.8127472 102.4524784  47.5729121  16.1090812
 101.6967217  48.6403217  16.8715424  98.6236080  47.6449802  16.7488997
  98.2854592  47.5290866  15.8609532  99.4925849  47.2440967  16.7290003
  94.4822896  49.4985278  12.7385888  93.9187761  49.4075215  11.9702176
  94.3675291  48.6785182  13.2188380  99.1055863  48.7984653  22.7075202
  99.0944504  48.4037452  21.8355706  99.2676503  48.0650726  23.3008974
  92.0287328  50.9936470  15.5770108  92.8208620  50.6527294  15.1616408
  92.2683978  51.1031445  16.4972262 100.0622455  53.1656246   8.0500353
  99.4110435  53.7510326   7.6634366 100.8566818  53.6962441   8.1095390
  93.9878082  50.2545383   8.4487487  94.7608958  49.7074370   8.3100363
  94.3403481  51.1189632   8.6601948  95.8263125  51.5821765  21.6554386
  95.5352991  52.4867396  21.5401053  96.4620109  51.6238293  22.3698456
  96.7519331  48.9598614  18.2455746  97.3482904  48.7354636  17.5312709
  96.8094303  48.2183359  18.8481194  96.3244360  46.4138049   6.0805937
  96.5769881  45.8919570   5.3189400  95.3868919  46.2504194   6.1832621
 101.3687643  45.4173827  13.8880680 102.1550732  44.9993250  13.5371097
 101.6326347  46.3219919  14.0562329 101.5397720  50.8546678   8.5869337
 100.9043553  50.9281304   9.2990242 101.2095126  51.4440276   7.9088416
 106.7696070  45.3549060  14.7913659 107.5021242  44.7848277  15.0251488
 106.0135425  44.9670661  15.2320164  96.0440649  48.3166155   8.2830312
  95.9276907  47.6411058   8.9511396  96.1542908  47.8298529   7.4662465
  98.3872189  47.7776302  11.9877001  98.0230397  47.2506923  12.6989923
  99.2439305  47.3874771  11.8143487 104.2921490  39.0670635  19.2508267
 103.9604815  39.9366046  19.0269482 103.6967104  38.7506919  19.9302298
 100.7853010  51.2683181  18.6504180 100.4853733  52.1708219  18.5419987
 100.4404069  51.0015364  19.5025333  94.2365491  47.7196977  14.6840884
  93.3115988  47.5873192  14.8918576  94.4849904  48.4991197  15.1810827
 104.1850153  43.7865721  16.3301617 103.2767031  43.7181129  16.0360378
 104.1337749  44.2637666  17.1583443  98.0066897  45.2623859   7.9685016
  97.8866523  45.7080910   8.8070497  97.3119486  45.6109177   7.4098555
  91.5974302  47.3630251  15.5184674  91.7266683  47.6164730  16.4324085
  90.9171753  47.9557959  15.1989329  95.7673789  58.0327501  11.6175148
  95.6897819  58.9835326  11.6963628  95.1635433  57.6873373  12.2750074
  98.2591019  45.2055366  24.2736515  97.4824353  45.7649286  24.2639379
  98.8981582  45.6912149  24.7951385 106.0511800  41.9882159  18.1079491
 105.4086180  42.2814692  17.4619286 105.5466728  41.8735079  18.9132688
  96.5137392  48.0140820  23.8354482  97.2552076  48.5525864  23.5589305
  95.8074377  48.6407108  23.9926033 101.9892731  50.1569960  22.4326643
 102.3976087  49.7152371  21.6881275 101.2669993  49.5822588  22.6860836
  98.3423801  45.0942567  19.8060200  99.1884996  45.5181980  19.9494849
  98.2822439  44.4376191  20.4998763 102.3121546  50.7171151  16.1878932
 101.6830408  50.8816865  15.4855000 101.9247208  51.1312760  16.9589896
 106.1910778  51.6525589  13.5423296 105.5061816  52.0324490  12.9920329
 106.2754627  52.2620915  14.2755244 101.4923247  42.7546935  21.4641374
 101.2484178  43.5088996  20.9275649 101.7683177  43.1332283  22.2988621
 103.4461709  49.2985548  20.1418639 103.6578605  49.9417308  19.4653020
 103.3991458  48.4647864  19.6740569 101.0487938  41.9103368  17.0455211
 100.1872417  42.2084622  17.3371949 101.0750373  42.1273767  16.1136244
  97.8649508  50.4545559  13.4529017  98.3287853  50.7333262  12.6633640
  97.6006306  49.5529003  13.2702108  94.7573589  50.0017040  16.3908780
  95.3274946  50.4304309  15.7526265  95.3481701  49.7199625  17.0892966
  96.8018394  46.5768711  10.2618582  97.5042437  47.0289755  10.7292509
  96.4699022  45.9352530  10.8898475  95.2498755  45.1680468  24.6369792
  94.6197416  45.8496749  24.8705188  95.1434843  45.0563549  23.6922930
  90.5443728  44.8352264  15.5635716  89.7542782  45.0909792  15.0875826
  91.0354975  45.6500602  15.6687756 104.5607537  52.1757503  18.3140997
 105.3824981  51.7737690  18.0323678 104.5569940  52.0725737  19.2657112
  92.4958473  45.1996843  12.5219193  91.6989636  45.3115537  13.0402688
  92.2684065  45.5383495  11.6560083  98.3264141  51.7241546  20.4701707
  98.3908573  52.1861954  21.3059879  97.6175065  51.0938911  20.5984017
  88.8281431  45.0882754  17.9950707  89.0789469  45.9729764  18.2608283
  89.3640979  44.9087356  17.2225798  98.0412158  53.3909654  10.3380687
  97.9057833  54.2361190  10.7665535  98.5821971  53.5928932   9.5746621
  94.5279498  39.4701234  26.9995043  94.1346444  38.9167432  27.6742687
  95.3445638  39.7811812  27.3901560  91.4941556  50.9085092  10.9108613
  92.0066076  51.7028342  11.0614177  92.1464269  50.2111382  10.8442214
  93.3036440  54.0250848  12.9931366  93.4803069  54.9468813  12.8052350
  94.0993274  53.7109267  13.4225746  97.4447459  40.8859113  24.5915299
  98.1857172  41.4866266  24.5119762  97.6765382  40.1436751  24.0333342
  92.5888797  46.0715480  22.8693529  92.4742312  45.1700737  23.1700628
  91.7333315  46.3179177  22.5178345  99.6680635  54.0133220  24.4681030
  99.2244489  53.2269599  24.1501934 100.3297848  54.2012371  23.8024920
  94.4267756  55.5429022  18.9941708  94.9775181  55.4146085  18.2218702
  93.5879232  55.8423911  18.6436601 101.7661873  54.2936020  22.4962431
 101.7480348  55.1144901  22.0042700 102.6881793  54.1690096  22.7212572
  98.2234927  51.8080150  23.3385939  98.7563264  51.0468438  23.1085247
  97.6949008  51.5153802  24.0810094 101.3904622  36.9140216  18.8679581
 101.0468891  37.8041857  18.7918692 101.7583585  36.7241873  18.0049166
  89.4590473  49.2373746  11.6868183  90.2965695  49.6470755  11.4701891
  89.6368740  48.2973188  11.6568377  98.9402016  41.7498528  12.4337254
  98.0843612  41.3605378  12.2542893  99.3528967  41.8290488  11.5737040
 100.4701162  39.2844871  16.8328814  99.9665958  39.2475006  16.0196619
 100.7631769  40.1937614  16.8925471  96.7144048  39.3683601  15.8394996
  97.5797045  39.1726409  15.4800885  96.7821557  39.1393952  16.7664353
  99.5887640  50.9366142  10.8504751  99.0609001  50.2018902  10.5377989
  99.0875142  51.7140819  10.6044720 104.5680486  49.1315163  15.9671798
 103.9104160  49.8214424  16.0551926 105.3720885  49.5211595  16.3105784
  94.3206367  41.5985809  13.2111363  94.8950119  41.3760990  12.4784556
  94.9077350  41.6674503  13.9639964 103.3785945  47.4859535  14.0175739
 103.8917826  48.1189527  14.5197449 104.0287168  46.8860731  13.6519099
  94.6475954  43.6290270   7.2307248  93.8113267  43.9664956   7.5516523
  94.5080724  43.4939249   6.2934385  96.6229035  38.4727057  11.9386432
  95.9693447  38.1576075  11.3143047  96.5809509  37.8502798  12.6646255
  99.8566775  44.9608991  16.2634080  98.9389337  45.1823938  16.1055768
 100.2726919  45.0355301  15.4045787 100.6401823  46.3600407  11.3936760
 101.3873642  46.8721804  11.0843882 100.9093413  46.0384459  12.2541154
  98.9128473  48.8558947   8.3763714  98.0039693  48.5717980   8.4736184
  98.9423557  49.2758026   7.5167021 104.1447741  52.4665537  12.1454882
 103.6910068  51.6256447  12.2020072 103.5141707  53.1026935  12.4829662
 103.0880660  43.3957523  13.3755549 102.3503417  42.8834909  13.7065792
 103.3407434  42.9557905  12.5638826 102.5880680  54.3042034  13.0804700
 102.8803654  54.8647091  12.3617066 103.0979301  54.5970595  13.8357859
  89.4816644  46.5764462  12.3578917  89.2841043  45.9833822  11.6329983
  88.9263308  46.2716672  13.0754855  97.4613367  46.4687568  14.4773510
  97.5161977  45.5161404  14.4015986  96.6504569  46.6247007  14.9614808
  98.6104561  50.3967691   5.7151793  98.1723991  49.6803550   5.2557430
  99.3515002  50.6243806   5.1536884  95.4005727  45.0864628  12.2363889
  94.5873593  45.3858798  12.6429081  95.8964721  44.6920317  12.9538371
  97.5514305  55.0822385  14.1698153  97.5090484  55.3083231  13.2406685
  98.4677004  54.8485759  14.3183954 100.9979939  45.5506452  21.0678782
 101.3529327  45.7777925  21.9273248 101.6452070  45.8824829  20.4456038
  94.8919802  42.6582983  17.8525123  95.5319181  42.5171742  17.1548087
  94.0597333  42.3717497  17.4763725 106.7547055  50.7401415  16.7839383
 107.1883562  50.6476704  17.6322437 107.4678636  50.7158916  16.1459399
  95.6680106  51.9585414  13.9660116  96.4620704  51.4635734  13.7642691
  94.9571798  51.4303277  13.6027822 100.4874950  54.3403509  18.3172484
 100.5411973  54.9094446  19.0850199  99.6189732  54.5105394  17.9526521
  91.9762869  46.1028495  10.0419869  91.0460457  46.0412951  10.2589831
  92.0720341  45.5804448   9.2456510  91.8948418  42.6283308  12.6298110
  92.1555236  43.5428642  12.5207271  92.7165591  42.1607751  12.7794723
  93.3673344  44.0421065  19.7996935  94.0396397  43.8338428  19.1509584
  92.5403130  43.8443151  19.3602167 107.6162605  50.7825116  19.3172268
 107.8098495  51.6870926  19.5631543 107.5163223  50.3232535  20.1510853
  99.2698916  40.6683006  21.8162596  98.6226831  41.3672956  21.7227072
 100.0399931  41.1019150  22.1838844 102.6777714  50.9331859  24.8913149
 102.5263220  50.7042410  23.9743233 102.6682393  51.8902460  24.9044494
  99.4463050  48.5063771  19.8759415 100.3755110  48.6574931  19.7028383
  99.0254080  48.5947792  19.0208062  98.2451382  52.5314436  17.6457953
  98.1062468  52.1633220  18.5183891  97.4565978  53.0462075  17.4741911
  98.8399534  57.6323532   8.9883490  99.0151290  57.1611575   9.8029112
  98.1532322  58.2589298   9.2164750  99.7956597  51.9096038  15.0346791
  99.4606430  51.8696808  15.9304441  99.2960543  51.2440754  14.5617201
  93.7700841  47.3163668  20.5599372  93.6320639  46.5843907  21.1610911
  94.6805764  47.2272569  20.2783560  96.3983142  47.0283628  20.0483052
  97.1082760  46.3876820  20.0069670  96.3552450  47.2796523  20.9709232
 104.3869920  53.9650981  22.9689631 104.3282467  53.2810201  22.3020214
 104.7889439  54.7069971  22.5170257  95.1112076  44.0148846  21.8678691
  94.5749433  43.5639584  22.5200287  94.5228784  44.1494754  21.1249155
  93.4060619  60.7812895  15.7623350  93.6457217  61.4131419  16.4402368
  92.5629816  60.4300935  16.0488709 104.3887328  51.9290565  21.2003611
 103.5014106  51.5916487  21.3230009 104.9585879  51.1973596  21.4372376
  86.0416475  48.2614657  14.5246662  86.7287515  47.9476387  13.9367677
  85.8864603  49.1656021  14.2513913  90.8451197  43.1504853  18.9531686
  90.7609386  42.5430523  18.2182096  90.0233903  43.6413872  18.9541182
  97.9188481  56.5892017  18.1664854  97.8458653  57.3946989  18.6784158
  97.4765874  56.7883983  17.3412875  97.7078261  55.8263787  11.6767675
  96.9245783  56.3685468  11.7705900  98.4071006  56.3437767  12.0761916
 101.0174911  41.6358417  14.3201881 101.5143610  40.8828379  14.0002951
 100.2461892  41.6722733  13.7545090 108.8704668  47.3398782  15.9620172
 108.8594544  48.2223498  15.5914105 108.0022048  46.9870333  15.7674709
 100.3787165  56.4878851  20.3223012 101.0915137  57.1226316  20.2498914
  99.8877193  56.5842717  19.5063014 102.1004691  50.3930104  11.8940304
 101.1660970  50.5131567  11.7245008 102.2781360  49.4902571  11.6300314
  97.6009880  43.7775800  14.0473565  97.2307667  43.2246840  14.7354471
  98.0968972  43.1733933  13.4948565 105.4877243  46.2347423  12.4290338
 105.9537695  47.0675415  12.3550641 105.9384743  45.7692405  13.1335597
  95.4299078  54.2373295  21.1428583  96.1308538  54.8709778  21.2957977
  94.9594193  54.5788026  20.3824222 103.5553474  52.5791245   9.4276490
 103.8313318  52.4647839  10.3370364 102.6857973  52.1808729   9.3888663
 103.4593906  38.6028010  16.4681240 102.5456985  38.8332237  16.6363446
 103.8887007  38.6866454  17.3195272 103.2300364  46.7917902  18.9681134
 102.5771814  47.0393810  18.3133586 103.6080744  45.9782040  18.6343611
 100.1907538  56.8277595  13.0709304 100.3729932  56.0099251  13.5337056
 101.0140524  57.0445288  12.6334194 100.5249703  55.7545781  10.3324352
 101.0537470  55.2438235   9.7194514 100.7877923  55.4388311  11.1969885
  99.2787937  47.5337713  25.4547171  98.6028574  47.4331843  26.1249546
 100.1015571  47.3776927  25.9183168  91.0266796  53.7709650  18.0759686
  91.6120233  53.0253338  18.2087590  90.8291635  54.0813607  18.9596350
  93.8805451  56.8060897  13.0922128  93.2115827  57.2907025  12.6086168
  93.7418321  57.0530118  14.0065507  85.6184451  46.3415250  16.7964129
  85.6568550  45.8078841  17.5901247  85.1124744  45.8150456  16.1775106
  98.0210720  58.8404641  19.6904787  98.5729028  59.0036262  20.4553872
  98.3616913  59.4309079  19.0184811  92.9975213  41.1879791  20.2926671
  93.0616540  42.0494622  19.8804069  92.9342333  40.5753792  19.5599030
  92.4727486  43.2602923  23.9399706  93.0999525  42.8780000  24.5537230
  91.6155405  43.0417125  24.3055398 102.8721594  53.6665898  25.5453441
 103.4161498  54.2795857  25.0508396 102.2908439  54.2245477  26.0620454
  89.2493028  45.0679352   9.8718060  89.5446470  44.1590031   9.8185114
  88.3481064  45.0467092   9.5499063 101.1579107  56.7886616  16.6768469
 101.0330247  55.9876356  16.1679414 101.8158198  57.2832810  16.1882439
  92.7787275  43.1435349  15.8545609  92.0573861  43.7571317  15.7153082
  93.5680531  43.6793114  15.7762255 103.2214016  54.5895636  18.3048019
 102.2744351  54.4700988  18.2326346 103.5696789  53.7018134  18.3874280
  95.5813589  40.4789775  22.1286261  96.1047991  40.7252072  22.8912570
  95.3625922  41.3109810  21.7089398  90.9780870  42.7493450   9.9957386
  90.6493576  41.8690829   9.8132491  91.3320241  42.6941119  10.8833775
 100.2260449  54.3848353  14.5052371 100.0785411  53.4565060  14.6859941
 101.0513942  54.4068443  14.0209446  94.0922693  43.0366420  10.3632863
  94.4318766  43.5652341   9.6411472  94.5394814  43.3746826  11.1391430
 103.8294571  55.2076911  15.5917244 104.7541118  55.0019773  15.4541695
 103.6609874  54.9593313  16.5006585  96.7866134  41.4203470  19.8135931
  96.4462954  40.6211284  20.2156611  96.0805140  41.7205181  19.2412764
  97.4382606  38.5052783  18.2663254  98.2608675  38.0313261  18.1442145
  97.6820669  39.2843267  18.7661941  96.0790840  41.5341041   8.5626156
  96.7999203  41.9122294   8.0589873  95.4556144  42.2529918   8.6661134
  94.9621185  45.1971904  16.0755233  94.8165765  45.5112207  16.9679514
  94.4846388  45.8156804  15.5226132  96.8217567  42.1874451  16.1236122
  96.8079136  41.2915545  15.7868420  97.5389996  42.1945115  16.7574409
  98.6743698  42.6211792  18.1689250  98.4161476  43.5428862  18.1673580
  98.1428739  42.2242226  18.8589714 103.6189887  55.7262579  10.9479335
 103.7926765  55.1609001  10.1953188 104.1118778  56.5263474  10.7658825
  89.4366847  47.7377248  19.0142894  88.8920315  48.5137056  19.1463168
  90.3146197  48.0848052  18.8562016  96.2254463  41.0688832  11.3923693
  96.3470375  40.1405478  11.5914580  95.9356506  41.0827518  10.4802008
  99.0945654  38.7543742  14.5290412  99.1167351  38.8183075  13.5742392
  99.5113713  37.9148251  14.7230919  90.2232869  46.8647144  21.9073051
  89.4814605  47.0129780  22.4937681  89.9025613  47.1255410  21.0439800
  98.1676531  56.4063122  21.7053441  98.4763658  56.1612269  22.5776141
  98.9652013  56.6109761  21.2172311  98.1897143  58.5601032  13.9358818
  97.7502134  58.0677411  14.6291674  98.9405260  58.0174000  13.6950893
  90.6689482  54.7512573  13.9383446  91.4947502  54.4516345  13.5582089
  90.3183534  53.9820195  14.3873234  95.6371015  54.1039041  16.0081119
  95.0151025  53.4409746  15.7083347  96.3075882  54.1300173  15.3254767
  88.8698087  52.6698899  14.8972379  88.0329996  52.2421074  14.7156380
  88.8421733  52.8631343  15.8343170  95.7095543  42.5820829  25.6013625
  95.7583698  43.4582952  25.2191395  96.2518057  42.0398222  25.0285268
 106.1950389  53.1261952  24.8814762 105.4045932  53.1086091  24.3419262
 105.9583743  53.6650246  25.6363799 106.3148264  49.9754419  22.1947491
 106.3646269  49.8104426  23.1363014 106.2062187  49.1081678  21.8045372
  95.1984522  52.6542964   9.4839580  95.3472643  53.3378429   8.8306252
  96.0050966  52.6348055   9.9989035 103.6052026  45.9585347  23.5106798
 104.5061889  45.8191812  23.2190795 103.6800001  46.1239802  24.4504975
  97.9394831  43.3352202  22.3559984  97.0698141  43.6285768  22.0842572
  98.1754312  43.9192647  23.0767248 107.8166461  52.3951360  22.4389512
 107.5251269  52.7581341  23.2752973 107.2038592  51.6818369  22.2602844
 109.0162143  49.9604240  14.9592083 109.8509034  50.3994044  15.1229643
 109.1521272  49.4842893  14.1400328 106.0653649  47.5183975  20.9069570
 106.5407770  47.7111621  20.0988422 105.1419214  47.5743161  20.6612954
  92.9537155  48.6808142  10.4900649  92.7083197  47.7770472  10.6880859
  93.1233070  48.6825293   9.5480127 100.6433865  39.5531818  19.8725404
 101.1615809  40.2892845  19.5471893 100.2888998  39.8595812  20.7072163
  92.2232803  44.4136500   7.9886810  91.5302048  44.4880855   7.3326846
  91.9784555  43.6496843   8.5108327 100.8946459  35.9732101  15.3926301
 101.1748213  35.3055290  16.0186727 101.6797066  36.1661197  14.8800965
  98.6979928  55.1491095   6.9551327  98.1253895  55.7681282   6.5021799
  99.2712722  55.6990457   7.4891249 104.7655318  44.3949735  19.1397876
 105.7172741  44.4947833  19.1610100 104.5958768  43.6028004  19.6495960
 102.7869697  41.4805318  19.3257277 102.1919629  41.7610331  18.6303766
 102.5019394  41.9699219  20.0974018 101.9177188  55.4328245   8.0859909
 102.8507861  55.3673807   8.2892785 101.8300401  56.2684512   7.6274442
 107.2443396  47.6155855  18.2540176 107.2119716  46.6771855  18.4399859
 107.8544019  47.6939891  17.5206001 107.3937884  44.4066898  18.2998459
 106.8776933  43.6225355  18.1128388 108.2777833  44.0785615  18.4644978
  98.9665419  50.5369654  25.7568037  99.8868428  50.7148253  25.9508083
  98.9315002  49.5925699  25.6047736  88.1847584  45.7308247  14.6821311
  87.8650368  44.8773556  14.3895685  87.6381012  45.9456826  15.4379279
  91.9627491  48.4470688  18.3990818  92.1813501  49.3787796  18.4178852
  92.3753265  48.0878663  19.1845622  96.8355357  44.0203894  27.7893567
  96.7352084  44.9698251  27.7205658  96.6176899  43.6922133  26.9169637
  88.0535844  49.3511159  16.6514433  87.3599315  48.9365112  16.1384387
  88.8008835  49.3931695  16.0547852  96.6986627  47.4501033  26.6058628
  96.2153709  48.2501393  26.8122517  96.7847566  47.4608978  25.6526072
  89.9672586  49.2829413  14.5280448  89.9443275  49.3817100  13.5762331
  90.2773223  50.1294564  14.8497614  92.6259964  51.3405568  18.6427062
  93.5803218  51.3089510  18.5756994  92.4272488  50.8796191  19.4577288
  93.2159346  49.9106684  21.2097860  94.0352235  50.4050762  21.2332697
  93.4896154  48.9938652  21.1815427  90.9810193  56.8825187  15.6597260
  90.8464661  56.1225588  15.0935258  90.5642255  57.6066087  15.1926049
 102.9466966  47.8171972  10.7876106 102.8902168  48.2740523   9.9483738
 103.4995309  47.0562657  10.6098948  94.1379319  57.7794504  15.8715703
  94.0211703  58.7239937  15.7694393  93.3171765  57.4768066  16.2601502
  88.4694261  44.2444818  21.9090057  89.1153124  43.7343772  22.3977282
  88.2611412  44.9813499  22.4833482 100.9947653  51.3125665  27.4082197
 101.8638813  51.4866317  27.0468832 100.5154404  52.1320082  27.2857927
  95.1633833  58.4322766  19.0871631  96.0661080  58.4646376  19.4038126
  94.9371203  57.5023217  19.1017967  96.9187435  57.1853753  15.7481710
  95.9683066  57.1855614  15.6346082  97.2219921  56.4386487  15.2317744
  92.8091752  41.3912435  26.0065071  93.6723213  41.0349240  26.2168396
  92.2357162  41.0526330  26.6940475 109.4629835  62.9741719  16.7488997
 109.1248346  62.8582784  15.8609532 110.3319603  62.5732884  16.7290003
 109.9449618  64.1276571  22.7075202 109.9338259  63.7329369  21.8355706
 110.1070257  63.3942644  23.3008974 102.8681083  66.3228387  15.5770108
 103.6602374  65.9819212  15.1616408 103.1077733  66.4323362  16.4972262
 106.6656879  66.9113683  21.6554386 106.3746745  67.8159314  21.5401053
 107.3013863  66.9530210  22.3698456 107.5913086  64.2890531  18.2455746
 108.1876658  64.0646554  17.5312709 107.6488057  63.5475277  18.8481194
 105.0759246  63.0488895  14.6840884 104.1509742  62.9165109  14.8918576
 105.3243659  63.8283114  15.1810827 102.4368057  62.6922169  15.5184674
 102.5660438  62.9456648  16.4324085 101.7565508  63.2849877  15.1989329
 109.0984774  60.5347284  24.2736515 108.3218108  61.0941204  24.2639379
 109.7375337  61.0204067  24.7951385 107.3531146  63.3432737  23.8354482
 108.0945830  63.8817781  23.5589305 106.6468131  63.9699026  23.9926033
 109.1817556  60.4234485  19.8060200 110.0278751  60.8473898  19.9494849
 109.1216193  59.7668109  20.4998763 105.5967343  65.3308958  16.3908780
 106.1668700  65.7596226  15.7526265 106.1875455  65.0491543  17.0892966
 106.0892510  60.4972386  24.6369792 105.4591170  61.1788666  24.8705188
 105.9828598  60.3855467  23.6922930 101.3837482  60.1644182  15.5635716
 100.5936536  60.4201710  15.0875826 101.8748730  60.9792519  15.6687756
 103.3352228  60.5288761  12.5219193 102.5383391  60.6407455  13.0402688
 103.1077820  60.8675413  11.6560083 109.1657895  67.0533464  20.4701707
 109.2302328  67.5153871  21.3059879 108.4568819  66.4230829  20.5984017
  99.6675185  60.4174672  17.9950707  99.9183224  61.3021682  18.2608283
 100.2034734  60.2379274  17.2225798 105.3673252  54.7993151  26.9995043
 104.9740198  54.2459350  27.6742687 106.1839393  55.1103730  27.3901560
 108.2841213  56.2151030  24.5915299 109.0250927  56.8158184  24.5119762
 108.5159136  55.4728668  24.0333342 103.4282551  61.4007398  22.8693529
 103.3136067  60.4992655  23.1700628 102.5727069  61.6471095  22.5178345
 105.2661510  70.8720940  18.9941708 105.8168936  70.7438003  18.2218702
 104.4272986  71.1715829  18.6436601 109.0628681  67.1372067  23.3385939
 109.5957018  66.3760356  23.1085247 108.5342763  66.8445719  24.0810094
 109.7795770  57.0790445  12.4337254 108.9237367  56.6897296  12.2542893
 110.1922722  57.1582406  11.5737040 107.5537803  54.6975518  15.8394996
 108.4190799  54.5018327  15.4800885 107.6215312  54.4685870  16.7664353
 105.1600122  56.9277726  13.2111363 105.7343874  56.7052908  12.4784556
 105.7471104  56.9966421  13.9639964 107.4622789  53.8018975  11.9386432
 106.8087202  53.4867992  11.3143047 107.4203264  53.1794716  12.6646255
 100.3210398  61.9056379  12.3578917 100.1234798  61.3125740  11.6329983
  99.7657062  61.6008589  13.0754855 108.3007122  61.7979486  14.4773510
 108.3555732  60.8453322  14.4015986 107.4898324  61.9538925  14.9614808
 106.2399482  60.4156545  12.2363889 105.4267347  60.7150716  12.6429081
 106.7358476  60.0212234  12.9538371 105.7313557  57.9874901  17.8525123
 106.3712936  57.8463660  17.1548087 104.8991087  57.7009414  17.4763725
 102.7342173  57.9575226  12.6298110 102.9948990  58.8720559  12.5207271
 103.5559345  57.4899669  12.7794723 104.2067098  59.3712983  19.7996935
 104.8790152  59.1630345  19.1509584 103.3796885  59.1735069  19.3602167
 109.0845136  67.8606353  17.6457953 108.9456222  67.4925138  18.5183891
 108.2959733  68.3753993  17.4741911 104.6094596  62.6455586  20.5599372
 104.4714393  61.9135825  21.1610911 105.5199519  62.5564486  20.2783560
 107.2376896  62.3575545  20.0483052 107.9476515  61.7168738  20.0069670
 107.1946204  62.6088440  20.9709232 105.9505830  59.3440763  21.8678691
 105.4143187  58.8931502  22.5200287 105.3622539  59.4786672  21.1249155
  96.8810229  63.5906574  14.5246662  97.5681269  63.2768304  13.9367677
  96.7258358  64.4947939  14.2513913 101.6844951  58.4796771  18.9531686
 101.6003140  57.8722441  18.2182096 100.8627658  58.9705789  18.9541182
 108.4403634  59.1067718  14.0473565 108.0701422  58.5538758  14.7354471
 108.9362726  58.5025851  13.4948565 106.2692833  69.5665213  21.1428583
 106.9702292  70.2001695  21.2957977 105.7987948  69.9079944  20.3824222
 101.8660551  69.1001568  18.0759686 102.4513987  68.3545255  18.2087590
 101.6685389  69.4105524  18.9596350  96.4578205  61.6707168  16.7964129
  96.4962305  61.1370758  17.5901247  95.9518498  61.1442373  16.1775106
 103.8368968  56.5171708  20.2926671 103.9010294  57.3786539  19.8804069
 103.7736088  55.9045710  19.5599030 103.3121240  58.5894841  23.9399706
 103.9393279  58.2071918  24.5537230 102.4549159  58.3709043  24.3055398
 100.0886783  60.3971270   9.8718060 100.3840224  59.4881948   9.8185114
  99.1874819  60.3759009   9.5499063 103.6181030  58.4727267  15.8545609
 102.8967616  59.0863234  15.7153082 104.4074286  59.0085031  15.7762255
 106.4207343  55.8081693  22.1286261 106.9441745  56.0543990  22.8912570
 106.2019677  56.6401728  21.7089398 101.8174625  58.0785368   9.9957386
 101.4887331  57.1982747   9.8132491 102.1713995  58.0233036  10.8833775
 107.6259889  56.7495388  19.8135931 107.2856709  55.9503201  20.2156611
 106.9198895  57.0497099  19.2412764 108.2776360  53.8344701  18.2663254
 109.1002430  53.3605179  18.1442145 108.5214424  54.6135184  18.7661941
 105.8014939  60.5263821  16.0755233 105.6559520  60.8404124  16.9679514
 105.3240143  61.1448722  15.5226132 107.6611322  57.5166369  16.1236122
 107.6472891  56.6207462  15.7868420 108.3783750  57.5237033  16.7574409
 109.5137453  57.9503709  18.1689250 109.2555231  58.8720780  18.1673580
 108.9822493  57.5534144  18.8589714 100.2760601  63.0669166  19.0142894
  99.7314069  63.8428974  19.1463168 101.1539951  63.4139970  18.8562016
 107.0648218  56.3980749  11.3923693 107.1864129  55.4697396  11.5914580
 106.7750260  56.4119435  10.4802008 109.9339408  54.0835660  14.5290412
 109.9561105  54.1474993  13.5742392 110.3507467  53.2440169  14.7230919
 101.0626623  62.1939062  21.9073051 100.3208359  62.3421697  22.4937681
 100.7419367  62.4547327  21.0439800 109.0070286  71.7355040  21.7053441
 109.3157412  71.4904187  22.5776141 109.8045768  71.9401679  21.2172311
  99.7091842  67.9990817  14.8972379  98.8723750  67.5712991  14.7156380
  99.6815487  68.1923260  15.8343170 106.5489297  57.9112747  25.6013625
 106.5977453  58.7874870  25.2191395 107.0911812  57.3690140  25.0285268
 108.7788586  58.6644119  22.3559984 107.9091895  58.9577685  22.0842572
 109.0148066  59.2484564  23.0767248  99.0241338  61.0600165  14.6821311
  98.7044123  60.2065473  14.3895685  98.4774767  61.2748743  15.4379279
 102.8021246  63.7762606  18.3990818 103.0207256  64.7079714  18.4178852
 103.2147020  63.4170581  19.1845622 107.6749111  59.3495812  27.7893567
 107.5745838  60.2990169  27.7205658 107.4570653  59.0214051  26.9169637
  98.8929598  64.6803077  16.6514433  98.1993070  64.2657029  16.1384387
  99.6402589  64.7223613  16.0547852 107.5380381  62.7792951  26.6058628
 107.0547463  63.5793311  26.8122517 107.6241320  62.7900896  25.6526072
 100.8066341  64.6121330  14.5280448 100.7837029  64.7109018  13.5762331
 101.1166977  65.4586481  14.8497614 103.4653719  66.6697485  18.6427062
 104.4196972  66.6381428  18.5756994 103.2666242  66.2088109  19.4577288
 104.0553101  65.2398601  21.2097860 104.8745990  65.7342680  21.2332697
 104.3289909  64.3230570  21.1815427  99.3088015  59.5736735  21.9090057
  99.9546879  59.0635689  22.3977282  99.1005166  60.3105417  22.4833482
 103.6485506  56.7204352  26.0065071 104.5116968  56.3641157  26.2168396
 103.0750917  56.3818247  26.6940475   4.2575979  56.1842215  81.0399432
   3.5039688  55.6149613  80.8843436   4.3923520  56.1504879  81.9870067
   0.6224592  57.6250203  81.3365546   1.4571483  58.0640007  81.5003107
   0.7583720  57.1488857  80.5173792   4.6682394  56.3417825  83.7719676
   5.3985783  56.0803113  84.3327380   4.0589340  55.6046547  83.8121744
   2.7497691  54.4825687  84.3694127   2.0230855  54.3481652  83.7610619
   2.3344978  54.7902516  85.1750845   2.6746559  54.0103740  80.4970980
   2.1146117  54.0796930  81.2702542   2.0690062  53.8344725  79.7770476
   4.2602577  70.6860254  83.1900936   4.8980987  70.5667002  82.4864276
   4.1423420  71.6341098  83.2488888   1.0692284  70.6387682  83.1262461
   0.7310795  70.5228747  82.2382995   1.9382052  70.2378848  83.1063467
   1.5512067  71.7922534  89.0848666   1.5400707  71.3975332  88.2129170
   1.7132706  71.0588607  89.6782438   2.5078658  76.1594127  74.4273816
   1.8566638  76.7448207  74.0407830   3.3023021  76.6900321  74.4868854
   3.8143846  68.4111708  80.2654144   4.6006935  67.9931131  79.9144561
   4.0782550  69.3157800  80.4335792   3.9853923  73.8484559  74.9642801
   3.3499756  73.9219185  75.6763705   3.6551330  74.4378157  74.2861880
   9.2152273  68.3486941  81.1687122   9.9477445  67.7786158  81.4024952
   8.4591629  67.9608542  81.6093628   6.7377693  62.0608516  85.6281731
   6.4061018  62.9303926  85.4042946   6.1423307  61.7444800  86.3075761
   3.2309213  74.2621062  85.0277644   2.9309936  75.1646100  84.9193451
   2.8860272  73.9953245  85.8798797   6.6306357  66.7803602  82.7075081
   5.7223234  66.7119010  82.4133842   6.5793953  67.2575547  83.5356907
   8.4968003  64.9820040  84.4852955   7.8542383  65.2752573  83.8392750
   7.9922932  64.8672960  85.2906152   6.1508167  68.7283213  75.1738814
   7.0626023  68.9610600  74.9986512   5.6417814  69.3120258  74.6113893
   4.4348934  73.1507841  88.8100107   4.8432291  72.7090252  88.0654739
   3.7126196  72.5760469  89.0634300   0.7880005  68.0880448  86.1833664
   1.6341200  68.5119861  86.3268313   0.7278642  67.4314072  86.8772227
   4.7577749  73.7109032  82.5652396   4.1286612  73.8754746  81.8628464
   4.3703411  74.1250641  83.3363360   8.6366981  74.6463470  79.9196759
   7.9518019  75.0262371  79.3693793   8.7210830  75.2558796  80.6528707
   3.9379450  65.7484816  87.8414837   3.6940382  66.5026877  87.3049113
   4.2139380  66.1270164  88.6762085   5.8917913  72.2923429  86.5192103
   6.1034808  72.9355189  85.8426484   5.8447661  71.4585745  86.0514033
   3.4944142  64.9041249  83.4228675   2.6328621  65.2022503  83.7145413
   3.5206576  65.1211648  82.4909708   7.0063741  75.1695384  84.6914460
   7.8281184  74.7675571  84.4097142   7.0026143  75.0663618  85.6430576
  15.0969734  71.5134133  81.0399432  14.3433442  70.9441531  80.8843436
  15.2317275  71.4796797  81.9870067   4.2118076  77.2873901  88.8735895
   4.1936551  78.1082782  88.3816164   5.1337996  77.1627976  89.0986036
   3.8360825  59.9078097  85.2453045   3.4925095  60.7979738  85.1692155
   4.2039788  59.7179754  84.3822630   3.8011108  69.8986708  73.7525480
   3.2857731  70.6691312  73.9913867   3.5288416  69.2251844  74.3758541
   1.3858219  64.7436409  78.8110718   0.5299815  64.3543259  78.6316357
   1.7985171  64.8228369  77.9510504   2.9157366  62.2782752  83.2102278
   2.4122161  62.2412887  82.3970083   3.2087972  63.1875495  83.2698935
   8.7745382  72.6519062  75.6878653   7.9974825  72.3130222  75.2433815
   9.4536863  72.6571686  75.0133618   3.5897411  67.7713800  75.5785261
   3.2847547  68.0859949  76.4295404   4.5427853  67.8495220  75.6212594
   2.0343843  73.9304023  77.2278215   1.5065205  73.1956783  76.9151452
   1.5331346  74.7078700  76.9818183   7.0136689  72.1253044  82.3445261
   6.3560363  72.8152305  82.4325390   7.8177088  72.5149476  82.6879248
   5.8242148  70.4797416  80.3949203   6.3374030  71.1127408  80.8970913
   6.4743372  69.8798612  80.0292563   3.0864522  80.4581741  73.1509874
   2.4126221  80.7613437  73.7594832   3.4730344  81.2610821  72.8015331
   2.3022979  67.9546872  82.6407544   1.3845540  68.1761819  82.4829232
   2.7183122  68.0293182  81.7819251   3.0858026  69.3538288  77.7710224
   3.8329845  69.8659685  77.4617346   3.3549616  69.0322340  78.6314617
   6.5903944  75.4603418  78.5228346   6.1366271  74.6194328  78.5793536
   5.9597911  76.0964816  78.8603126   5.5336864  66.3895404  79.7529013
   4.7959620  65.8772790  80.0839256   5.7863637  65.9495785  78.9412290
   5.0336883  77.2979915  79.4578164   5.3259858  77.8584972  78.7390529
   5.5435504  77.5908476  80.2131323   5.6348491  59.1671656  80.3470782
   5.9407368  58.3069019  80.0596697   6.3601096  59.7589276  80.1469776
   1.0560764  73.3905572  72.0925257   0.6180194  72.6741431  71.6330894
   1.7971205  73.6181687  71.5310348   3.4436142  68.5444333  87.4452246
   3.7985530  68.7715806  88.3046712   4.0908273  68.8762710  86.8229501
   9.1733879  71.6662769  78.1501575   9.0351778  71.8564365  77.2222764
   8.8170098  72.4282152  78.6069626   9.2003259  73.7339296  83.1612847
   9.6339765  73.6414585  84.0095901   9.9134839  73.7096797  82.5232863
   2.9331154  77.3341390  84.6945947   2.9868176  77.9032326  85.4623663
   2.0645935  77.5043275  84.3299984  10.0618808  73.7762997  85.6945732
  10.2554698  74.6808807  85.9405007   9.9619427  73.3170416  86.5284317
   1.7155119  63.6620887  88.1936059   1.0683034  64.3610837  88.1000536
   2.4856134  64.0957031  88.5612308   5.1233917  73.9269739  91.2686613
   4.9719423  73.6980291  90.3516696   5.1138596  74.8840341  91.2817958
   1.8919253  71.5001652  86.2532879   2.8211313  71.6512812  86.0801846
   1.4710283  71.5885673  85.3981526   1.2855737  80.6261413  75.3656953
   1.4607493  80.1549456  76.1802576   0.5988525  81.2527179  75.5938214
   2.2412800  74.9033919  81.4120255   1.9062633  74.8634689  82.3077904
   1.7416746  74.2378635  80.9390665   5.1771992  72.2489954  71.6857314
   4.5601163  71.5236782  71.5890367   4.7088480  73.0099314  71.3424388
   6.8326124  76.9588862  89.3463095   6.7738670  76.2748082  88.6793678
   7.2345642  77.7007852  88.8943721   6.8343531  74.9228446  87.5777074
   5.9470310  74.5854368  87.7003473   7.4042082  74.1911477  87.8145840
   3.4631114  64.6296298  80.6975344   3.9599814  63.8766260  80.3776415
   2.6918096  64.6660614  80.1318554  11.3160871  70.3336663  82.3393636
  11.3050748  71.2161379  81.9687569  10.4478251  69.9808214  82.1448173
   2.8243368  79.4816732  86.6996476   3.5371340  80.1164197  86.6272378
   2.3333396  79.5780598  85.8836478   4.5460895  73.3867985  78.2713768
   3.6117173  73.5069447  78.1018472   4.7237563  72.4840452  78.0073778
   7.9333446  69.2285304  78.8063802   8.3993898  70.0613296  78.7324105
   8.3840947  68.7630286  79.5109060   6.0009677  75.5729126  75.8049954
   6.2769521  75.4585720  76.7143828   5.1314176  75.1746610  75.7662127
   5.9050109  61.5965891  82.8454703   4.9913189  61.8270118  83.0136910
   6.3343210  61.6804335  83.6968736   5.6756567  69.7855783  85.3454597
   5.0228018  70.0331691  84.6907050   6.0536947  68.9719921  85.0117075
   2.6363741  79.8215476  79.4482768   2.8186136  79.0037132  79.9110520
   3.4596727  80.0383169  79.0107658   2.9705907  78.7483662  76.7097816
   3.4993673  78.2376116  76.0967978   3.2334126  78.4326192  77.5743349
   3.6035311  79.7824497  83.0541933   3.4786450  78.9814237  82.5452878
   4.2614402  80.2770691  82.5655902   5.6670219  77.5833517  84.6821483
   4.7200554  77.4638869  84.6099809   6.0152992  76.6956015  84.7647744
   2.6716652  77.3786234  80.8825835   2.5241615  76.4502941  81.0633405
   3.4970146  77.4006324  80.3982910   6.2750774  78.2014792  81.9690708
   7.1997322  77.9957654  81.8315159   6.1066077  77.9531193  82.8780049
   2.6678167  65.2324071  75.8757952   2.8841781  66.1148709  75.5746780
   2.1872234  64.8410285  75.1463594   1.1199902  65.6149673  84.5462714
   0.8617679  66.5366743  84.5447044   0.5884942  65.2180107  85.2363178
   6.0646090  78.7200460  77.3252799   6.2382968  78.1546882  76.5726652
   6.5574982  79.5201355  77.1432289   1.5401857  61.7481623  80.9063876
   1.5623554  61.8120956  79.9515856   1.9569916  60.9086132  81.1004382
  11.9185481  71.4836883  78.9443099  12.3616627  70.7344208  78.5462222
  11.0411992  71.4747019  78.5616831   7.0521263  78.0367224  74.4249697
   7.7472167  78.6573917  74.6437012   7.3944413  77.1862575  74.7002075
   8.9512686  75.4866930  75.9537028   9.4764010  75.8254202  75.2286348
   8.8635038  74.5513945  75.7700163   8.6406592  76.1199833  91.2588226
   7.8502136  76.1023972  90.7192725   8.4039947  76.6588127  92.0137263
   8.7604467  72.9692300  88.5720955   8.8102472  72.8042307  89.5136477
   8.6518390  72.1019559  88.1818835   6.0508229  68.9523228  89.8880261
   6.9518092  68.8129693  89.5964259   6.1256204  69.1177683  90.8278439
  10.2622664  75.3889241  88.8162976   9.9707472  75.7519222  89.6526437
   9.6494795  74.6756250  88.6376308  11.4618346  72.9542121  81.3365546
  12.2965238  73.3931925  81.5003107  11.5977475  72.4780774  80.5173792
   8.5109852  70.5121856  87.2843034   8.9863974  70.7049502  86.4761886
   7.5875417  70.5681042  87.0386418   3.0890069  62.5469699  86.2498868
   3.6072012  63.2830726  85.9245357   2.7345201  62.8533693  87.0845627
   3.3402663  58.9669982  81.7699765   3.6204416  58.2993171  82.3960191
   4.1253270  59.1599078  81.2574428   1.1436131  78.1428976  73.3324791
   0.5710098  78.7619163  72.8795263   1.7168925  78.6928338  73.8664713
   7.2111521  67.3887616  85.5171340   8.1628944  67.4885714  85.5383564
   7.0414971  66.5965885  86.0269424   5.2325901  64.4743199  85.7030741
   4.6375833  64.7548212  85.0077229   4.9475597  64.9637100  86.4747482
   4.3633391  78.4266126  74.4633373   5.2964064  78.3611688  74.6666249
   4.2756604  79.2622393  74.0047906   6.9921408  77.7431996  71.4237321
   6.9135039  77.4091860  72.3173079   7.8131074  78.2353764  71.4228793
   9.6899599  70.6093736  84.6313639   9.6575919  69.6709736  84.8173323
  10.3000223  70.6877772  83.8979464   1.5282930  69.4789789  70.6740843
   2.4742034  69.3495997  70.7429261   1.1497175  68.7404451  71.1510272
   9.8394087  67.4004779  84.6771923   9.3233136  66.6163236  84.4901851
  10.7234036  67.0723496  84.8418442   7.5004814  61.1445795  80.6367735
   7.3029635  60.8360883  81.5211067   8.1104520  61.8707434  80.7665665
  15.5076149  71.6709742  83.7719676  16.2379537  71.4095031  84.3327380
  14.8983094  70.9338464  83.8121744  13.5891446  69.8117605  84.3694127
  12.8624609  69.6773570  83.7610619  13.1738733  70.1194434  85.1750845
   1.3287913  61.9476655  76.7639970   0.5188641  61.6023740  77.1395216
   2.0172330  61.6384198  77.3527582   3.2578461  61.0254702  78.3864267
   3.8109499  61.4450155  79.0454290   3.4948547  60.0990450  78.4287223
   6.6357268  63.1355227  77.8942931   6.0555937  63.7940031  77.5120983
   6.3693201  62.3132571  77.4830348   5.0860834  62.5360284  80.0964251
   5.5860613  62.6476819  79.2878570   5.7296442  62.2321337  80.7365060
   5.4182146  65.2955317  76.9499279   4.5308001  65.5804968  76.7319474
   5.8336135  65.1349080  76.1026556   8.7696682  65.3201838  80.6653618
   9.5457072  65.8098290  80.9378235   8.0444816  65.7459892  81.1225488
  11.2069241  66.0329457  81.7227559  11.8013732  65.7925193  81.0120867
  11.2795824  65.3136588  82.3501095   4.5625359  75.0599992  71.0447299
   5.2661210  75.2649994  71.6604955   3.8388008  75.6276754  71.3096383
   5.3923170  70.8109853  77.1649569   5.3358371  71.2678404  76.3257202
   5.9451512  70.0500538  76.9872412   9.2027976  66.5999585  77.9899689
   8.9464910  66.1996221  78.8207896   8.5780844  67.3143379  77.8649828
  13.5140313  69.3395658  80.4970980  12.9539871  69.4088847  81.2702542
  12.9083817  69.1636643  79.7770476   6.4712057  75.4982521  73.0945759
   7.3057661  75.0663719  72.9123234   6.3096400  75.3264535  74.0222654
   6.1257949  72.0014634  74.4602098   6.0706753  71.8358906  73.5190543
   5.5004004  72.7090667  74.6164288   3.2506194  58.0965520  78.2933354
   2.4838590  57.5424007  78.4390036   3.6616899  58.1687389  79.1547505
  15.0996332  86.0152172  83.1900936  15.7374742  85.8958919  82.4864276
  14.9817175  86.9633016  83.2488888  11.9086038  85.9679600  83.1262461
  11.5704550  85.8520665  82.2382995  12.7775806  85.5670765  83.1063467
   7.7672854  87.8215077  79.1159352   7.2037719  87.7305014  78.3475639
   7.6525249  87.0014981  79.5961844  12.3905821  87.1214452  89.0848666
  12.3794462  86.7267250  88.2129170  12.5526461  86.3880524  89.6782438
   5.3137286  89.3166268  81.9543572   6.1058578  88.9757093  81.5389871
   5.5533936  89.4261243  82.8745725  13.3472413  91.4886044  74.4273816
  12.6960392  92.0740125  74.0407830  14.1416775  92.0192239  74.4868854
   7.2728040  88.5775181  74.8260951   8.0458916  88.0304169  74.6873827
   7.6253439  89.4419431  75.0375412  10.0369289  87.2828412  84.6229210
  10.6332861  87.0584435  83.9086173  10.0944261  86.5413158  85.2254658
   9.6094318  84.7367848  72.4579401   9.8619838  84.2149369  71.6962864
   8.6718877  84.5733993  72.5606084  14.6537600  83.7403626  80.2654144
  15.4400690  83.3223049  79.9144561  14.9176305  84.6449718  80.4335792
  14.8247678  89.1776476  74.9642801  14.1893511  89.2511103  75.6763705
  14.4945084  89.7670075  74.2861880  20.0546028  83.6778859  81.1687122
  20.7871200  83.1078076  81.4024952  19.2985383  83.2900460  81.6093628
   9.3290606  86.6395953  74.6603776   9.2126864  85.9640857  75.3284860
   9.4392866  86.1528327  73.8435929  11.6722147  86.1006101  78.3650465
  11.3080355  85.5736722  79.0763386  12.5289263  85.7104570  78.1916950
  17.5771448  77.3900433  85.6281731  17.2454773  78.2595844  85.4042946
  16.9817061  77.0736717  86.3075761  11.3127634  81.1296000  73.3611813
  11.4802037  81.9976237  73.7282284  11.1224803  81.2923282  72.4373103
  14.0702967  89.5912979  85.0277644  13.7703691  90.4938018  84.9193451
  13.7254027  89.3245162  85.8798797   7.5215449  86.0426776  81.0614348
   6.5965945  85.9102990  81.2692040   7.7699862  86.8220995  81.5584291
  17.4700111  82.1095519  82.7075081  16.5616989  82.0410928  82.4133842
  17.4187707  82.5867464  83.5356907  11.2916855  83.5853658  74.3458480
  11.1716480  84.0310709  75.1843961  10.5969444  83.9338975  73.7872018
   4.8824260  85.6860050  81.8958137   5.0116641  85.9394529  82.8097549
   4.2021711  86.2787758  81.5762792   9.0523747  96.3557300  77.9948611
   8.9747777  97.3065125  78.0737092   8.4485391  96.0103172  78.6523538
  11.5440977  83.5285165  90.6509978  10.7674311  84.0879085  90.6412843
  12.1831540  84.0141948  91.1724848  19.3361758  80.3111958  84.4852955
  18.6936138  80.6044491  83.8392750  18.8316686  80.1964878  85.2906152
  16.9901921  84.0575131  75.1738814  17.9019777  84.2902518  74.9986512
  16.4811568  84.6412175  74.6113893  15.2742689  88.4799759  88.8100107
  15.6826045  88.0382169  88.0654739  14.5519950  87.9052386  89.0634300
  11.6273759  83.4172366  86.1833664  12.4734954  83.8411779  86.3268313
  11.5672397  82.7605990  86.8772227  15.5971504  89.0400949  82.5652396
  14.9680366  89.2046664  81.8628464  15.2097166  89.4542559  83.3363360
  19.4760736  89.9755387  79.9196759  18.7911774  90.3554289  79.3693793
  19.5604585  90.5850714  80.6528707  14.7773204  81.0776734  87.8414837
  14.5334136  81.8318794  87.3049113  15.0533135  81.4562082  88.6762085
  16.7311667  87.6215346  86.5192103  16.9428562  88.2647106  85.8426484
  16.6841415  86.7877663  86.0514033  14.3337896  80.2333167  83.4228675
  13.4722375  80.5314421  83.7145413  14.3600331  80.4503566  82.4909708
  11.1499465  88.7775358  79.8302481  11.6137811  89.0563060  79.0407103
  10.8856264  87.8758802  79.6475572   8.0423547  88.3246839  82.7682244
   8.6124904  88.7534107  82.1299729   8.6331658  88.0429424  83.4666430
  10.0868352  84.8998510  76.6392046  10.7892395  85.3519554  77.1065972
   9.7548980  84.2582329  77.2671939   3.8293685  83.1582063  81.9409180
   3.0392739  83.4139591  81.4649290   4.3204933  83.9730400  82.0461220
  17.8457495  90.4987302  84.6914460  18.6674939  90.0967489  84.4097142
  17.8419898  90.3955536  85.6430576   5.7808431  83.5226642  78.8992656
   4.9839594  83.6345336  79.4176152   5.5534023  83.8613294  78.0333547
  11.6114099  90.0471345  86.8475171  11.6758531  90.5091752  87.6833343
  10.9025022  89.4168710  86.9757481   2.1131388  83.4112553  84.3724170
   2.3639427  84.2959563  84.6381746   2.6490937  83.2317155  83.5999262
  25.9363488  86.8426050  81.0399432  25.1827196  86.2733448  80.8843436
  26.0711029  86.8088715  81.9870067  11.3262116  91.7139453  76.7154151
  11.1907791  92.5590988  77.1438999  11.8671929  91.9158730  75.9520085
   4.7791514  89.2314891  77.2882076   5.2916034  90.0258141  77.4387641
   5.4314226  88.5341181  77.2215678   6.5886398  92.3480647  79.3704829
   6.7653027  93.2698612  79.1825813   7.3843232  92.0339066  79.7999209
  10.7297417  79.2088911  90.9688763  11.4707130  79.8096065  90.8893225
  10.9615340  78.4666549  90.4106806  15.0511831  92.6165819  88.8735895
  15.0330306  93.4374700  88.3816164  15.9731751  92.4919894  89.0986036
  14.6754580  75.2370014  85.2453045  14.3318849  76.1271656  85.1692155
  15.0433542  75.0471672  84.3822630   2.7440430  87.5603545  78.0641647
   3.5815652  87.9700553  77.8475355   2.9218698  86.6202987  78.0341841
  14.6404862  85.2278625  73.7525480  14.1251486  85.9983230  73.9913867
  14.3682171  84.5543762  74.3758541  12.2251973  80.0728326  78.8110718
  11.3693570  79.6835177  78.6316357  12.6378925  80.1520287  77.9510504
  13.7551120  77.6074670  83.2102278  13.2515916  77.5704805  82.3970083
  14.0481727  78.5167412  83.2698935   9.9994006  77.6913399  82.2168460
  10.8647003  77.4956208  81.8574349  10.0671515  77.4623751  83.1437816
  19.6139137  87.9810980  75.6878653  18.8368579  87.6422140  75.2433815
  20.2930618  87.9863603  75.0133618  14.4291166  83.1005718  75.5785261
  14.1241301  83.4151867  76.4295404  15.3821608  83.1787137  75.6212594
  12.8737597  89.2595941  77.2278215  12.3458959  88.5248700  76.9151452
  12.3725100  90.0370617  76.9818183  17.8530443  87.4544961  82.3445261
  17.1954118  88.1444223  82.4325390  18.6570843  87.8441393  82.6879248
   7.6056325  79.9215607  79.5884826   8.1800077  79.6990789  78.8558019
   8.1927308  79.9904302  80.3413428  16.6635902  85.8089334  80.3949203
  17.1767784  86.4419326  80.8970913  17.3137126  85.2090530  80.0292563
   7.9325912  81.9520068  73.6080712   7.0963224  82.2894755  73.9289986
   7.7930682  81.8169048  72.6707849   9.9078993  76.7956856  78.3159896
   9.2543405  76.4805873  77.6916511   9.8659467  76.1732597  79.0419719
  11.0190198  87.0776151  70.2313188  10.1117259  86.8465405  70.4304337
  11.5161230  86.2813770  70.4187170  13.9258277  95.7873658  73.1509874
  13.2519975  96.0905355  73.7594832  14.3124098  96.5902739  72.8015331
  13.1416733  83.2838790  82.6407544  12.2239295  83.5053737  82.4829232
  13.5576877  83.3585100  81.7819251  13.9251781  84.6830205  77.7710224
  14.6723600  85.1951603  77.4617346  14.1943370  84.3614258  78.6314617
  12.1978431  87.1788746  74.7537178  11.2889650  86.8947779  74.8509648
  12.2273515  87.5987825  73.8940485  17.4297699  90.7895336  78.5228346
  16.9760026  89.9486245  78.5793536  16.7991665  91.4256734  78.8603126
  16.3730618  81.7187322  79.7529013  15.6353375  81.2064708  80.0839256
  16.6257392  81.2787703  78.9412290  15.8730638  92.6271832  79.4578164
  16.1653612  93.1876889  78.7390529  16.3829258  92.9200393  80.2131323
  16.4742245  74.4963574  80.3470782  16.7801122  73.6360937  80.0596697
  17.1994850  75.0881194  80.1469776   2.7666601  84.8994260  78.7352380
   2.5691001  84.3063621  78.0103447   2.2113265  84.5946470  79.4528319
  10.7463325  84.7917367  80.8546973  10.8011935  83.8391203  80.7789450
   9.9354527  84.9476806  81.3388272  11.8954519  88.7197490  72.0925257
  11.4573949  88.0033349  71.6330894  12.6364960  88.9473605  71.5310348
   8.6855685  83.4094426  78.6137352   7.8723551  83.7088597  79.0202544
   9.1814679  83.0150115  79.3311835  10.8364263  93.4052183  80.5471617
  10.7940442  93.6313030  79.6180149  11.7526962  93.1715558  80.6957418
  14.2829897  83.8736251  87.4452246  14.6379284  84.1007724  88.3046712
  14.9302028  84.2054628  86.8229501  20.0127634  86.9954687  78.1501575
  19.8745532  87.1856283  77.2222764  19.6563852  87.7574070  78.6069626
   8.1769760  80.9812782  84.2298587   8.8169139  80.8401541  83.5321551
   7.3447290  80.6947295  83.8537189  20.0397013  89.0631214  83.1612847
  20.4733520  88.9706503  84.0095901  20.7528594  89.0388714  82.5232863
   8.9530064  90.2815212  80.3433580   9.7470662  89.7865532  80.1416155
   8.2421756  89.7533075  79.9801285  13.7724908  92.6633308  84.6945947
  13.8261930  93.2324244  85.4623663  12.9039690  92.8335193  84.3299984
   5.2612827  84.4258294  76.4193332   4.3310415  84.3642750  76.6363295
   5.3570299  83.9034247  75.6229974   5.1798376  80.9513107  79.0071574
   5.4405194  81.8658440  78.8980734   6.0015549  80.4837549  79.1568187
   6.6523302  82.3650864  86.1770399   7.3246355  82.1568226  85.5283047
   5.8253088  82.1672950  85.7375631  20.9012563  89.1054914  85.6945732
  21.0948453  90.0100725  85.9405007  20.8013181  88.6462333  86.5284317
  12.5548874  78.9912805  88.1936059  11.9076789  79.6902755  88.1000536
  13.3249889  79.4248949  88.5612308  15.9627672  89.2561657  91.2686613
  15.8113178  89.0272209  90.3516696  15.9532351  90.2132259  91.2817958
  12.7313008  86.8293570  86.2532879  13.6605068  86.9804730  86.0801846
  12.3104038  86.9177591  85.3981526  11.5301340  90.8544234  84.0231417
  11.3912425  90.4863019  84.8957355  10.7415936  91.3691874  83.8515375
  12.1249492  95.9553331  75.3656953  12.3001247  95.4841374  76.1802576
  11.4382280  96.5819097  75.5938214  13.0806555  90.2325837  81.4120255
  12.7456387  90.1926607  82.3077904  12.5810501  89.5670553  80.9390665
   7.0550799  85.6393467  86.9372836   6.9170597  84.9073706  87.5384375
   7.9655722  85.5502367  86.6557023  16.0165746  87.5781871  71.6857314
  15.3994917  86.8528700  71.5890367  15.5482235  88.3391232  71.3424388
   9.6833099  85.3513426  86.4256515  10.3932718  84.7106619  86.3843134
   9.6402408  85.6026321  87.3482696  17.6719878  92.2880780  89.3463095
  17.6132424  91.6040000  88.6793678  18.0739397  93.0299770  88.8943721
   8.3962033  82.3378644  88.2452155   7.8599390  81.8869383  88.8973751
   7.8078742  82.4724553  87.5022619   7.8064292  81.7967296  70.8078618
   6.9293759  81.6756096  70.4440865   8.2822045  81.0053374  70.5557507
  17.6737285  90.2520364  87.5777074  16.7864064  89.9146285  87.7003473
  18.2435836  89.5203395  87.8145840   4.1301155  81.4734652  85.3305149
   4.0459343  80.8660321  84.5955559   3.3083861  81.9643670  85.3314646
  11.2038439  94.9121816  84.5438317  11.1308610  95.7176787  85.0557622
  10.7615832  95.1113782  83.7186339  10.9928218  94.1493586  78.0541139
  10.2095740  94.6915266  78.1479364  11.6920964  94.6667566  78.4535380
  14.3024869  79.9588215  80.6975344  14.7993568  79.2058178  80.3776415
  13.5311850  79.9952532  80.1318554  22.1554626  85.6628581  82.3393636
  22.1444502  86.5453296  81.9687569  21.2872005  85.3100132  82.1448173
  13.6637122  94.8108650  86.6996476  14.3765095  95.4456115  86.6272378
  13.1727151  94.9072516  85.8836478  15.3854649  88.7159903  78.2713768
  14.4510928  88.8361365  78.1018472  15.5631318  87.8132369  78.0073778
  10.8859837  82.1005598  80.4247029  10.5157625  81.5476639  81.1127935
  11.3818930  81.4963732  79.8722029  18.7727201  84.5577222  78.8063802
  19.2387653  85.3905214  78.7324105  19.2234701  84.0922204  79.5109060
  16.8403432  90.9021043  75.8049954  17.1163276  90.7877638  76.7143828
  15.9707930  90.5038528  75.7662127  16.7443863  76.9257809  82.8454703
  15.8306943  77.1562036  83.0136910  17.1736965  77.0096253  83.6968736
  16.5150322  85.1147701  85.3454597  15.8621772  85.3623608  84.6907050
  16.8930702  84.3011839  85.0117075  13.4757496  95.1507394  79.4482768
  13.6579890  94.3329050  79.9110520  14.2990482  95.3675086  79.0107658
  13.8099661  94.0775579  76.7097816  14.3387428  93.5668034  76.0967978
  14.0727881  93.7618109  77.5743349   7.1655409  95.1290696  79.4695592
   6.4965784  95.6136824  78.9859632   7.0268279  95.3759916  80.3838971
   6.2825171  79.5109589  86.6700135   6.3466497  80.3724420  86.2577533
   6.2192291  78.8983591  85.9372494   2.5342986  83.3909151  76.2491524
   2.8296427  82.4819829  76.1958578   1.6331022  83.3696890  75.9272527
  14.4429065  95.1116415  83.0541933  14.3180204  94.3106155  82.5452878
  15.1008156  95.6062608  82.5655902   6.0637233  81.4665147  82.2319073
   5.3423819  82.0801115  82.0926546   6.8530489  82.0022912  82.1535719
  16.5063973  92.9125435  84.6821483  15.5594309  92.7930786  84.6099809
  16.8546747  92.0247933  84.7647744   8.8663547  78.8019574  88.5059725
   9.3897949  79.0481871  89.2686034   8.6475880  79.6339609  88.0862862
   4.2630828  81.0723249  76.3730849   3.9343534  80.1920627  76.1905955
   4.6170199  81.0170917  77.2607239  13.5110407  92.7078151  80.8825835
  13.3635369  91.7794859  81.0633405  14.3363900  92.7298242  80.3982910
   7.3772651  81.3596218  76.7406327   7.7168724  81.8882140  76.0184935
   7.8244771  81.6976624  77.5164894  17.1144529  93.5306710  81.9690708
  18.0391076  93.3249571  81.8315159  16.9459832  93.2823111  82.8780049
  10.0716092  79.7433269  86.1909395   9.7312912  78.9441082  86.5930075
   9.3655098  80.0434980  85.6186228  10.7232564  76.8282581  84.6436718
  11.5458633  76.3543060  84.5215608  10.9670627  77.6073065  85.1435404
   9.3640798  79.8570840  74.9399620  10.0849161  80.2352093  74.4363337
   8.7406102  80.5759717  75.0434598  13.5071921  80.5615989  75.8757952
  13.7235535  81.4440627  75.5746780  13.0265988  80.1702202  75.1463594
   8.2471142  83.5201702  82.4528697   8.1015723  83.8342005  83.3452978
   7.7696346  84.1386602  81.8999595  10.1067525  80.5104250  82.5009586
  10.0929094  79.6145343  82.1641884  10.8239953  80.5174914  83.1347872
  11.9593656  80.9441590  84.5462714  11.7011434  81.8658661  84.5447044
  11.4278696  80.5472025  85.2363178  16.9039845  94.0492377  77.3252799
  17.0776722  93.4838800  76.5726652  17.3968736  94.8493272  77.1432289
   9.5104421  79.3918630  77.7697156   9.6320332  78.4635277  77.9688044
   9.2206464  79.4057316  76.8575472  12.3795612  77.0773541  80.9063876
  12.4017308  77.1412874  79.9515856  12.7963671  76.2378049  81.1004382
  22.7579236  86.8128800  78.9443099  23.2010382  86.0636126  78.5462222
  21.8805746  86.8038937  78.5616831  17.8915017  93.3659142  74.4249697
  18.5865922  93.9865835  74.6437012  18.2338167  92.5154493  74.7002075
  19.7906440  90.8158847  75.9537028  20.3157764  91.1546120  75.2286348
  19.7028793  89.8805863  75.7700163  11.4747101  96.8830831  80.3132281
  11.0352091  96.3907209  81.0065138  12.2255218  96.3403798  80.0724357
   3.9539440  93.0742372  80.3156909   4.7797460  92.7746143  79.9355553
   3.6033492  92.3049994  80.7646698   8.9220973  92.4268840  82.3854583
   8.3000983  91.7639545  82.0856811   9.5925840  92.4529972  81.7028231
   8.9945501  80.9050628  91.9787089   9.0433656  81.7812751  91.5964859
   9.5368015  80.3628021  91.4058732  19.4800346  91.4491751  91.2588226
  18.6895890  91.4315890  90.7192725  19.2433701  91.9880045  92.0137263
  19.5998221  88.2984217  88.5720955  19.6496226  88.1334225  89.5136477
  19.4912145  87.4311476  88.1818835   8.4834480  90.9772763  75.8613044
   8.6322601  91.6608227  75.2079716   9.2900924  90.9577853  76.3762499
  16.8901984  84.2815145  89.8880261  17.7911847  84.1421610  89.5964259
  16.9649958  84.4469600  90.8278439  11.2244789  81.6582000  88.7333448
  10.3548099  81.9515566  88.4616036  11.4604270  82.2422445  89.4540711
  21.1016418  90.7181159  88.8162976  20.8101227  91.0811139  89.6526437
  20.4888550  90.0048167  88.6376308  22.3012101  88.2834039  81.3365546
  23.1358992  88.7223843  81.5003107  22.4371229  87.8072692  80.5173792
  19.3503607  85.8413774  87.2843034  19.8257728  86.0341420  86.4761886
  18.4269172  85.8972959  87.0386418   6.2387113  87.0037941  76.8674112
   5.9933155  86.1000271  77.0654323   6.4083028  87.0055091  75.9253590
  13.9283823  77.8761617  86.2498868  14.4465767  78.6122644  85.9245357
  13.5738956  78.1825610  87.0845627   5.5082761  82.7366298  74.3660274
   4.8152006  82.8110653  73.7100310   5.2634513  81.9726642  74.8881791
  14.1796417  74.2961900  81.7699765  14.4598171  73.6285089  82.3960191
  14.9647024  74.4890995  81.2574428  11.9829886  93.4720894  73.3324791
  11.4103853  94.0911081  72.8795263  12.5562679  94.0220255  73.8664713
  18.0505276  82.7179534  85.5171340  19.0022698  82.8177631  85.5383564
  17.8808726  81.9257802  86.0269424  16.0719655  79.8035117  85.7030741
  15.4769587  80.0840130  85.0077229  15.7869352  80.2929018  86.4747482
  15.2027145  93.7558044  74.4633373  16.1357819  93.6903605  74.6666249
  15.1150358  94.5914311  74.0047906  17.8315162  93.0723914  71.4237321
  17.7528794  92.7383778  72.3173079  18.6524829  93.5645682  71.4228793
  20.5293353  85.9385653  84.6313639  20.4969673  85.0001654  84.8173323
  21.1393977  86.0169690  83.8979464  12.3676684  84.8081706  70.6740843
  13.3135789  84.6787914  70.7429261  11.9890929  84.0696368  71.1510272
  20.6787842  82.7296697  84.6771923  20.1626890  81.9455153  84.4901851
  21.5627790  82.4015413  84.8418442  18.3398569  76.4737712  80.6367735
  18.1423390  76.1652801  81.5211067  18.9498274  77.1999351  80.7665665
  26.3469903  87.0001660  83.7719676  27.0773292  86.7386948  84.3327380
  25.7376849  86.2630382  83.8121744  24.4285200  85.1409523  84.3694127
  23.7018364  85.0065488  83.7610619  24.0132487  85.4486351  85.1750845
  10.5519601  82.7331683  70.6095729   9.6451057  82.4364795  70.6858442
  10.8295582  82.4361501  69.7430015   1.4697542  84.0538046  81.0594775
   1.1500326  83.2003354  80.7669149   0.9230970  84.2686624  81.8152742
   5.2477449  86.7700487  84.7764282   5.4663459  87.7017595  84.7952315
   5.6603223  86.4108461  85.5619085  12.1681667  77.2768572  76.7639970
  11.3582395  76.9315657  77.1395216  12.8566084  76.9676116  77.3527582
  14.0972215  76.3546619  78.3864267  14.6503254  76.7742073  79.0454290
  14.3342302  75.4282367  78.4287223   9.3218386  79.5918618  70.7507708
  10.1837550  79.9173516  71.0103525   9.5068730  78.8050114  70.2380774
  17.4751022  78.4647144  77.8942931  16.8949692  79.1231948  77.5120983
  17.2086955  77.6424489  77.4830348  15.9254589  77.8652202  80.0964251
  16.4254367  77.9768737  79.2878570  16.5690197  77.5613255  80.7365060
   3.2522544  87.6059211  80.9053912   3.2293232  87.7046899  79.9535795
   3.5623181  88.4524362  81.2271078  16.2575900  80.6247235  76.9499279
  15.3701756  80.9096885  76.7319474  16.6729890  80.4640998  76.1026556
  19.6090437  80.6493756  80.6653618  20.3850827  81.1390208  80.9378235
  18.8838571  81.0751810  81.1225488  22.0462995  81.3621375  81.7227559
  22.6407486  81.1217111  81.0120867  22.1189579  80.6428506  82.3501095
  15.4019114  90.3891909  71.0447299  16.1054964  90.5941912  71.6604955
  14.6781763  90.9568671  71.3096383  16.2316924  86.1401771  77.1649569
  16.1752126  86.5970322  76.3257202  16.7845267  85.3792455  76.9872412
  20.0421730  81.9291503  77.9899689  19.7858664  81.5288138  78.8207896
  19.4174598  82.6435296  77.8649828  24.3534068  84.6687576  80.4970980
  23.7933626  84.7380765  81.2702542  23.7477571  84.4928560  79.7770476
  17.3105811  90.8274439  73.0945759  18.1451415  90.3955637  72.9123234
  17.1490154  90.6556452  74.0222654  16.9651704  87.3306552  74.4602098
  16.9100507  87.1650823  73.5190543  16.3397759  88.0382585  74.6164288
  10.2747829  76.8314661  74.0387417  10.2626499  77.7756501  74.1955688
  11.1671251  76.6484806  73.7446878  10.2037393  95.5083551  82.1255173
   9.2533024  95.5085413  82.0119546  10.5069879  94.7616286  81.6091208
  14.0899948  73.4257438  78.2933354  13.3232344  72.8715924  78.4390036
  14.5010653  73.4979306  79.1547505  25.9390086 101.3444090  83.1900936
  26.5768496 101.2250837  82.4864276  25.8210929 102.2924934  83.2488888
  22.7479793 101.2971518  83.1262461  22.4098304 101.1812583  82.2382995
  23.6169561 100.8962683  83.1063467  20.4488072 100.0659765  72.4579401
  20.7013593  99.5441286  71.6962864  19.5112631  99.9025911  72.5606084
  25.4931355  99.0695544  80.2654144  26.2794444  98.6514967  79.9144561
  25.7570059  99.9741636  80.4335792  30.8939782  99.0070777  81.1687122
  31.6264954  98.4369994  81.4024952  30.1379138  98.6192377  81.6093628
  22.5115902 101.4298018  78.3650465  22.1474109 100.9028639  79.0763386
  23.3683018 101.0396487  78.1916950  28.4165202  92.7192351  85.6281731
  28.0848527  93.5887762  85.4042946  27.8210816  92.4028635  86.3075761
  22.1521389  96.4587918  73.3611813  22.3195791  97.3268154  73.7282284
  21.9618558  96.6215200  72.4373103  28.3093866  97.4387437  82.7075081
  27.4010743  97.3702845  82.4133842  28.2581462  97.9159382  83.5356907
  22.1310610  98.9145575  74.3458480  22.0110235  99.3602626  75.1843961
  21.4363198  99.2630893  73.7872018  22.3834731  98.8577083  90.6509978
  21.6068066  99.4171003  90.6412843  23.0225295  99.3433866  91.1724848
  30.1755512  95.6403875  84.4852955  29.5329892  95.9336409  83.8392750
  29.6710441  95.5256796  85.2906152  27.8295676  99.3867049  75.1738814
  28.7413532  99.6194435  74.9986512  27.3205323  99.9704093  74.6113893
  22.4667513  98.7464283  86.1833664  23.3128709  99.1703697  86.3268313
  22.4066151  98.0897908  86.8772227  25.6166959  96.4068652  87.8414837
  25.3727891  97.1610712  87.3049113  25.8926889  96.7853999  88.6762085
  27.5705422 102.9507264  86.5192103  27.7822317 103.5939024  85.8426484
  27.5235170 102.1169581  86.0514033  25.1731651  95.5625085  83.4228675
  24.3116130  95.8606338  83.7145413  25.1994085  95.7795484  82.4909708
  20.9262106 100.2290428  76.6392046  21.6286149 100.6811471  77.1065972
  20.5942735  99.5874246  77.2671939  14.6687440  98.4873980  81.9409180
  13.8786494  98.7431509  81.4649290  15.1598687  99.3022318  82.0461220
  16.6202185  98.8518559  78.8992656  15.8233349  98.9637254  79.4176152
  16.3927778  99.1905212  78.0333547  36.7757243 102.1717968  81.0399432
  36.0220951 101.6025366  80.8843436  36.9104784 102.1380632  81.9870067
  21.5691171  94.5380829  90.9688763  22.3100885  95.1387982  90.8893225
  21.8009094  93.7958467  90.4106806  25.5148334  90.5661932  85.2453045
  25.1712604  91.4563574  85.1692155  25.8827297  90.3763590  84.3822630
  25.4798617 100.5570543  73.7525480  24.9645240 101.3275148  73.9913867
  25.2075925  99.8835679  74.3758541  23.0645728  95.4020244  78.8110718
  22.2087324  95.0127094  78.6316357  23.4772680  95.4812205  77.9510504
  24.5944875  92.9366587  83.2102278  24.0909670  92.8996722  82.3970083
  24.8875481  93.8459330  83.2698935  20.8387760  93.0205317  82.2168460
  21.7040757  92.8248126  81.8574349  20.9065269  92.7915669  83.1437816
  30.4532891 103.3102898  75.6878653  29.6762334 102.9714057  75.2433815
  31.1324372 103.3155521  75.0133618  25.2684920  98.4297635  75.5785261
  24.9635056  98.7443784  76.4295404  26.2215362  98.5079055  75.6212594
  28.6924198 102.7836879  82.3445261  28.0347872 103.4736140  82.4325390
  29.4964597 103.1733311  82.6879248  18.4450080  95.2507525  79.5884826
  19.0193831  95.0282706  78.8558019  19.0321062  95.3196219  80.3413428
  27.5029657 101.1381252  80.3949203  28.0161539 101.7711244  80.8970913
  28.1530881 100.5382447  80.0292563  18.7719667  97.2811986  73.6080712
  17.9356979  97.6186672  73.9289986  18.6324436  97.1460966  72.6707849
  20.7472747  92.1248774  78.3159896  20.0937160  91.8097791  77.6916511
  20.7053221  91.5024514  79.0419719  23.9810488  98.6130707  82.6407544
  23.0633049  98.8345654  82.4829232  24.3970631  98.6877018  81.7819251
  24.7645535 100.0122123  77.7710224  25.5117354 100.5243520  77.4617346
  25.0337125  99.6906176  78.6314617  27.2124373  97.0479239  79.7529013
  26.4747129  96.5356625  80.0839256  27.4651146  96.6079621  78.9412290
  27.3136000  89.8255491  80.3470782  27.6194877  88.9652855  80.0596697
  28.0388605  90.4173111  80.1469776  21.5857080 100.1209284  80.8546973
  21.6405689  99.1683121  80.7789450  20.7748282 100.2768723  81.3388272
  19.5249440  98.7386344  78.6137352  18.7117305  99.0380515  79.0202544
  20.0208434  98.3442033  79.3311835  25.1223651  99.2028169  87.4452246
  25.4773039  99.4299642  88.3046712  25.7695782  99.5346545  86.8229501
  30.8521388 102.3246604  78.1501575  30.7139287 102.5148200  77.2222764
  30.4957607 103.0865987  78.6069626  19.0163514  96.3104700  84.2298587
  19.6562894  96.1693459  83.5321551  18.1841045  96.0239213  83.8537189
  30.8790768 104.3923131  83.1612847  31.3127274 104.2998421  84.0095901
  31.5922348 104.3680632  82.5232863  16.0192131  96.2805025  79.0071574
  16.2798948  97.1950358  78.8980734  16.8409303  95.8129467  79.1568187
  17.4917056  97.6942782  86.1770399  18.1640109  97.4860144  85.5283047
  16.6646843  97.4964868  85.7375631  31.7406317 104.4346832  85.6945732
  31.9342207 105.3392643  85.9405007  31.6406935 103.9754251  86.5284317
  23.3942628  94.3204723  88.1936059  22.7470543  95.0194672  88.1000536
  24.1643643  94.7540867  88.5612308  23.5706762 102.1585488  86.2532879
  24.4998822 102.3096647  86.0801846  23.1497792 102.2469508  85.3981526
  20.5226854 100.6805344  86.4256515  21.2326472 100.0398536  86.3843134
  20.4796162 100.9318239  87.3482696  19.2355788  97.6670562  88.2452155
  18.6993145  97.2161300  88.8973751  18.6472496  97.8016471  87.5022619
  18.6458047  97.1259213  70.8078618  17.7687513  97.0048014  70.4440865
  19.1215800  96.3345292  70.5557507  14.9694909  96.8026570  85.3305149
  14.8853098  96.1952239  84.5955559  14.1477616  97.2935588  85.3314646
  25.1418623  95.2880133  80.6975344  25.6387323  94.5350095  80.3776415
  24.3705605  95.3244450  80.1318554  32.9948380 100.9920499  82.3393636
  32.9838257 101.8745214  81.9687569  32.1265760 100.6392050  82.1448173
  21.7253592  97.4297516  80.4247029  21.3551379  96.8768557  81.1127935
  22.2212684  96.8255650  79.8722029  29.6120955  99.8869140  78.8063802
  30.0781407 100.7197131  78.7324105  30.0628456  99.4214121  79.5109060
  27.5837618  92.2549727  82.8454703  26.6700698  92.4853953  83.0136910
  28.0130719  92.3388171  83.6968736  27.3544076 100.4439619  85.3454597
  26.7015527 100.6915526  84.6907050  27.7324456  99.6303757  85.0117075
  17.1218925  94.8401507  86.6700135  17.1860252  95.7016338  86.2577533
  17.0586046  94.2275509  85.9372494  16.9030988  96.7957065  82.2319073
  16.1817574  97.4093033  82.0926546  17.6924244  97.3314830  82.1535719
  19.7057301  94.1311492  88.5059725  20.2291703  94.3773788  89.2686034
  19.4869635  94.9631526  88.0862862  15.1024582  96.4015166  76.3730849
  14.7737288  95.5212545  76.1905955  15.4563953  96.3462835  77.2607239
  18.2166405  96.6888136  76.7406327  18.5562478  97.2174057  76.0184935
  18.6638526  97.0268542  77.5164894  20.9109846  95.0725187  86.1909395
  20.5706667  94.2733000  86.5930075  20.2048853  95.3726898  85.6186228
  21.5626318  92.1574499  84.6436718  22.3852387  91.6834977  84.5215608
  21.8064382  92.9364983  85.1435404  20.2034553  95.1862758  74.9399620
  20.9242915  95.5644010  74.4363337  19.5799857  95.9051634  75.0434598
  24.3465676  95.8907907  75.8757952  24.5629290  96.7732544  75.5746780
  23.8659743  95.4994120  75.1463594  19.0864897  98.8493620  82.4528697
  18.9409478  99.1633923  83.3452978  18.6090101  99.4678520  81.8999595
  20.9461280  95.8396168  82.5009586  20.9322849  94.9437261  82.1641884
  21.6633708  95.8466832  83.1347872  22.7987410  96.2733508  84.5462714
  22.5405188  97.1950579  84.5447044  22.2672451  95.8763943  85.2363178
  20.3498176  94.7210548  77.7697156  20.4714087  93.7927194  77.9688044
  20.0600218  94.7349234  76.8575472  23.2189366  92.4065459  80.9063876
  23.2411063  92.4704792  79.9515856  23.6357425  91.5669967  81.1004382
  33.5972990 102.1420718  78.9443099  34.0404136 101.3928043  78.5462222
  32.7199501 102.1330854  78.5616831  19.8339255  96.2342545  91.9787089
  19.8827411  97.1104668  91.5964859  20.3761769  95.6919939  91.4058732
  30.4391976 103.6276135  88.5720955  30.4889981 103.4626143  89.5136477
  30.3305899 102.7603394  88.1818835  27.7295738  99.6107063  89.8880261
  28.6305601  99.4713528  89.5964259  27.8043713  99.7761518  90.8278439
  22.0638544  96.9873918  88.7333448  21.1941853  97.2807484  88.4616036
  22.2998024  97.5714363  89.4540711  33.1405855 103.6125956  81.3365546
  33.9752747 104.0515760  81.5003107  33.2764984 103.1364610  80.5173792
  30.1897361 101.1705691  87.2843034  30.6651483 101.3633338  86.4761886
  29.2662926 101.2264877  87.0386418  24.7677578  93.2053535  86.2498868
  25.2859521  93.9414562  85.9245357  24.4132710  93.5117528  87.0845627
  16.3476515  98.0658216  74.3660274  15.6545760  98.1402571  73.7100310
  16.1028267  97.3018560  74.8881791  25.0190172  89.6253817  81.7699765
  25.2991925  88.9577006  82.3960191  25.8040779  89.8182913  81.2574428
  28.8899030  98.0471451  85.5171340  29.8416453  98.1469549  85.5383564
  28.7202480  97.2549720  86.0269424  26.9113410  95.1327035  85.7030741
  26.3163342  95.4132047  85.0077229  26.6263106  95.6220935  86.4747482
  31.3687108 101.2677571  84.6313639  31.3363428 100.3293572  84.8173323
  31.9787731 101.3461608  83.8979464  23.2070439 100.1373624  70.6740843
  24.1529543 100.0079832  70.7429261  22.8284684  99.3988286  71.1510272
  31.5181596  98.0588614  84.6771923  31.0020645  97.2747071  84.4901851
  32.4021545  97.7307331  84.8418442  29.1792323  91.8029630  80.6367735
  28.9817144  91.4944718  81.5211067  29.7892029  92.5291269  80.7665665
  37.1863658 102.3293578  83.7719676  37.9167046 102.0678866  84.3327380
  36.5770603 101.5922300  83.8121744  35.2678955 100.4701440  84.3694127
  34.5412118 100.3357405  83.7610619  34.8526242 100.7778269  85.1750845
  21.3913356  98.0623600  70.6095729  20.4844811  97.7656713  70.6858442
  21.6689337  97.7653418  69.7430015  23.0075422  92.6060490  76.7639970
  22.1976150  92.2607575  77.1395216  23.6959839  92.2968034  77.3527582
  24.9365970  91.6838537  78.3864267  25.4897008  92.1033990  79.0454290
  25.1736056  90.7574285  78.4287223  20.1612140  94.9210536  70.7507708
  21.0231304  95.2465434  71.0103525  20.3462485  94.1342031  70.2380774
  28.3144777  93.7939062  77.8942931  27.7343446  94.4523866  77.5120983
  28.0480710  92.9716407  77.4830348  26.7648343  93.1944120  80.0964251
  27.2648122  93.3060654  79.2878570  27.4083951  92.8905173  80.7365060
  27.0969655  95.9539152  76.9499279  26.2095510  96.2388803  76.7319474
  27.5123644  95.7932916  76.1026556  30.4484191  95.9785673  80.6653618
  31.2244581  96.4682126  80.9378235  29.7232325  96.4043728  81.1225488
  32.8856750  96.6913293  81.7227559  33.4801241  96.4509029  81.0120867
  32.9583333  95.9720423  82.3501095  27.0710679 101.4693688  77.1649569
  27.0145880 101.9262240  76.3257202  27.6239021 100.7084373  76.9872412
  30.8815485  97.2583420  77.9899689  30.6252419  96.8580056  78.8207896
  30.2568353  97.9727214  77.8649828  35.1927822  99.9979493  80.4970980
  34.6327380 100.0672683  81.2702542  34.5871326  99.8220478  79.7770476
  27.8045458 102.6598470  74.4602098  27.7494262 102.4942741  73.5190543
  27.1791513 103.3674503  74.6164288  21.1141583  92.1606579  74.0387417
  21.1020253  93.1048419  74.1955688  22.0065005  91.9776724  73.7446878
  24.9293703  88.7549355  78.2933354  24.1626099  88.2007842  78.4390036
  25.3404408  88.8271224  79.1547505  36.3542089 105.8953850  85.2453045
  36.0106358 106.7855491  85.1692155  36.7221051 105.7055507  84.3822630
  38.1529754 105.1547409  80.3470782  38.4588631 104.2944772  80.0596697
  38.8782359 105.7465029  80.1469776  35.8583926 104.9545735  81.7699765
  36.1385680 104.2868924  82.3960191  36.6434533 105.1474831  81.2574428
  40.0186078 107.1321548  80.6367735  39.8210899 106.8236636  81.5211067
  40.6285783 107.8583187  80.7665665  35.7687457 104.0841273  78.2933354
  35.0019853 103.5299760  78.4390036  36.1798162 104.1563142  79.1547505
   4.2575980  33.1904337  67.7644738   3.5039689  32.6211736  67.6088743
   4.3923522  33.1567002  68.7115373   0.6224593  34.6312326  68.0610853
   1.4571484  35.0702130  68.2248413   0.7583722  34.1550979  67.2419099
   4.6682395  33.3479947  70.4964983   5.3985784  33.0865236  71.0572686
   4.0589341  32.6108669  70.5367051   2.7497693  31.4887810  71.0939434
   2.0230856  31.3543775  70.4855926   2.3344979  31.7964639  71.8996152
   2.6746560  31.0165863  67.2216287   2.1146118  31.0859052  67.9947849
   2.0690064  30.8406848  66.5015783   4.2602579  47.6922377  69.9146243
   4.8980989  47.5729124  69.2109583   4.1423422  48.6403221  69.9734195
   1.0692285  47.6449805  69.8507767   0.7310797  47.5290870  68.9628302
   1.9382053  47.2440970  69.8308773   1.5512068  48.7984657  75.8093973
   1.5400709  48.4037455  74.9374476   1.7132707  48.0650729  76.4027744
   2.5078659  53.1656249  61.1519123   1.8566639  53.7510330  60.7653137
   3.3023022  53.6962444  61.2114161   3.8143847  45.4173831  66.9899451
   4.6006936  44.9993254  66.6389868   4.0782552  46.3219923  67.1581099
   3.9853925  50.8546681  61.6888107   3.3499758  50.9281308  62.4009012
   3.6551331  51.4440280  61.0107187   9.2152274  45.3549064  67.8932429
   9.9477446  44.7848281  68.1270259   8.4591630  44.9670664  68.3338935
   6.7377695  39.0670638  72.3527038   6.4061019  39.9366049  72.1288253
   6.1423308  38.7506922  73.0321068   3.2309214  51.2683184  71.7522950
   2.9309937  52.1708223  71.6438758   2.8860274  51.0015367  72.6044103
   6.6306358  43.7865724  69.4320388   5.7223235  43.7181133  69.1379149
   6.5793954  44.2637669  70.2602213   8.4968004  41.9882163  71.2098262
   7.8542385  42.2814696  70.5638056   7.9922933  41.8735083  72.0151458
   6.1508168  45.7345336  61.8984121   7.0626024  45.9672723  61.7231818
   5.6417815  46.3182380  61.3359200   4.4348936  50.1569964  75.5345413
   4.8432292  49.7152374  74.7900046   3.7126197  49.5822591  75.7879606
   0.7880006  45.0942570  72.9078970   1.6341201  45.5181984  73.0513619
   0.7278643  44.4376195  73.6017534   4.7577750  50.7171154  69.2897702
   4.1286613  50.8816868  68.5873770   4.3703412  51.1312764  70.0608666
   8.6366982  51.6525592  66.6442066   7.9518020  52.0324494  66.0939099
   8.7210832  52.2620919  67.3774014   3.9379451  42.7546939  74.5660144
   3.6940383  43.5088999  74.0294420   4.2139382  43.1332286  75.4007391
   5.8917914  49.2985551  73.2437410   6.1034809  49.9417311  72.5671791
   5.8447662  48.4647868  72.7759340   3.4944143  41.9103372  70.1473982
   2.6328622  42.2084625  70.4390719   3.5206577  42.1273771  69.2155014
   7.0063742  52.1757507  71.4159767   7.8281186  51.7737694  71.1342449
   7.0026145  52.0725741  72.3675883  15.0969735  48.5196255  67.7644738
  14.3433443  47.9503653  67.6088743  15.2317276  48.4858920  68.7115373
   2.1136839  54.0133224  77.5699800   1.6700693  53.2269602  77.2520704
   2.7754053  54.2012374  76.9043691   4.2118077  54.2936024  75.5981201
   4.1936553  55.1144905  75.1061470   5.1337997  54.1690099  75.8231342
   3.8360827  36.9140219  71.9698351   3.4925096  37.8041861  71.8937462
   4.2039789  36.7241877  71.1067936   3.8011109  46.9048830  60.4770786
   3.2857733  47.6753435  60.7159174   3.5288418  46.2313967  61.1003848
   1.3858220  41.7498531  65.5356025   0.5299817  41.3605382  65.3561663
   1.7985172  41.8290492  64.6755810   2.9157367  39.2844874  69.9347585
   2.4122162  39.2475010  69.1215390   3.2087974  40.1937617  69.9944241
   8.7745383  49.6581185  62.4123960   7.9974826  49.3192345  61.9679122
   9.4536864  49.6633808  61.7378925   3.5897412  44.7775923  62.3030568
   3.2847548  45.0922072  63.1540711   4.5427855  44.8557342  62.3457901
   2.0343844  50.9366146  63.9523522   1.5065206  50.2018905  63.6396759
   1.5331347  51.7140822  63.7063490   7.0136690  49.1315166  69.0690568
   6.3560365  49.8214428  69.1570697   7.8177089  49.5211598  69.4124554
   5.8242149  47.4859539  67.1194510   6.3374031  48.1189531  67.6216219
   6.4743373  46.8860735  66.7537870   3.0864523  57.4643863  59.8755181
   2.4126222  57.7675560  60.4840139   3.4730345  58.2672944  59.5260638
   2.3022980  44.9608995  69.3652850   1.3845541  45.1823942  69.2074538
   2.7183124  45.0355305  68.5064557   3.0858028  46.3600410  64.4955530
   3.8329847  46.8721807  64.1862652   3.3549617  46.0384463  65.3559924
   6.5903945  52.4665540  65.2473652   6.1366272  51.6256450  65.3038843
   5.9597912  53.1026939  65.5848432   5.5336865  43.3957526  66.4774320
   4.7959622  42.8834913  66.8084562   5.7863638  42.9557908  65.6657597
   5.0336885  54.3042037  66.1823470   5.3259859  54.8647094  65.4635836
   5.5435505  54.5970598  66.9376629   5.6348492  36.1733778  67.0716089
   5.9407369  35.3131142  66.7842004   6.3601097  36.7651399  66.8715083
   1.0560766  50.3967695  58.8170563   0.6180196  49.6803554  58.3576201
   1.7971207  50.6243809  58.2555655   3.4436144  45.5506456  74.1697553
   3.7985531  45.7777929  75.0292019   4.0908275  45.8824833  73.5474808
   9.1733880  48.6724892  64.8746882   9.0351779  48.8626488  63.9468071
   8.8170099  49.4344274  65.3314933   9.2003260  50.7401419  69.8858153
   9.6339767  50.6476708  70.7341207   9.9134841  50.7158919  69.2478169
   2.9331155  54.3403513  71.4191254   2.9868177  54.9094449  72.1868970
   2.0645936  54.5105398  71.0545291  10.0618810  50.7825119  72.4191039
  10.2554700  51.6870930  72.6650314   9.9619428  50.3232538  73.2529624
   1.7155120  40.6683010  74.9181366   1.0683035  41.3672960  74.8245842
   2.4856136  41.1019154  75.2857614   5.1233918  50.9331862  77.9931919
   4.9719425  50.7042414  77.0762003   5.1138598  51.8902463  78.0063264
   1.8919255  48.5063775  72.9778186   2.8211315  48.6574934  72.8047153
   1.4710285  48.5947796  72.1226832   1.2855738  57.6323536  62.0902260
   1.4607494  57.1611579  62.9047883   0.5988526  58.2589302  62.3183521
   2.2412802  51.9096042  68.1365561   1.9062634  51.8696812  69.0323211
   1.7416747  51.2440758  67.6635971   5.1771993  49.2552076  58.4102621
   4.5601164  48.5298904  58.3135674   4.7088482  50.0161437  58.0669695
   6.8326125  53.9650985  76.0708401   6.7738671  53.2810205  75.4038984
   7.2345643  54.7069975  75.6189027   6.8343532  51.9290569  74.3022381
   5.9470311  51.5916490  74.4248780   7.4042083  51.1973600  74.5391146
   3.4631115  41.6358420  67.4220651   3.9599815  40.8828383  67.1021721
   2.6918097  41.6722737  66.8563860  11.3160873  47.3398786  69.0638943
  11.3050749  48.2223501  68.6932876  10.4478252  46.9870337  68.8693480
   2.8243369  56.4878855  73.4241783   3.5371341  57.1226320  73.3517684
   2.3333398  56.5842721  72.6081785   4.5460896  50.3930108  64.9959074
   3.6117175  50.5131570  64.8263779   4.7237564  49.4902574  64.7319084
   7.9333447  46.2347427  65.5309109   8.3993900  47.0675418  65.4569411
   8.3840948  45.7692408  66.2354367   6.0009678  52.5791248  62.5295261
   6.2769522  52.4647843  63.4389135   5.1314177  52.1808733  62.4907434
   5.9050110  38.6028014  69.5700010   4.9913190  38.8332241  69.7382217
   6.3343212  38.6866458  70.4214042   5.6756569  46.7917906  72.0699904
   5.0228019  47.0393813  71.4152357   6.0536949  45.9782044  71.7362381
   2.6363742  56.8277599  66.1728074   2.8186137  56.0099255  66.6355827
   3.4596729  57.0445291  65.7352964   2.9705908  55.7545784  63.4343123
   3.4993674  55.2438239  62.8213285   3.2334128  55.4388314  64.2988656
   1.7244142  47.5337717  78.5565941   1.0484779  47.4331846  79.2268316
   2.5471776  47.3776931  79.0201938   5.3177799  53.6665902  78.6472211
   5.8617703  54.2795860  78.1527166   4.7364644  54.2245480  79.1639224
   3.6035312  56.7886620  69.7787239   3.4786451  55.9876360  69.2698185
   4.2614403  57.2832813  69.2901209   5.6670220  54.5895640  71.4066789
   4.7200556  54.4700991  71.3345116   6.0152993  53.7018138  71.4893051
   2.6716653  54.3848356  67.6071141   2.5241616  53.4565064  67.7878712
   3.4970147  54.4068447  67.1228217   6.2750775  55.2076915  68.6936014
   7.1997323  55.0019776  68.5560465   6.1066079  54.9593316  69.6025356
   2.6678168  42.2386194  62.6003259   2.8841782  43.1210832  62.2992087
   2.1872235  41.8472407  61.8708901   1.1199903  42.6211795  71.2708020
   0.8617681  43.5428866  71.2692351   0.5884943  42.2242230  71.9608484
   6.0646092  55.7262582  64.0498106   6.2382969  55.1609005  63.2971958
   6.5574983  56.5263477  63.8677596   1.5401858  38.7543746  67.6309183
   1.5623555  38.8183079  66.6761162   1.9569917  37.9148254  67.8249689
  11.9185483  48.4899005  65.6688405  12.3616629  47.7406331  65.2707529
  11.0411993  48.4809142  65.2862137   7.0521264  55.0429347  61.1495004
   7.7472169  55.6636039  61.3682319   7.3944414  54.1924698  61.4247382
   8.9512687  52.4929052  62.6782335   9.4764011  52.8316325  61.9531655
   8.8635040  51.5576068  62.4945469   0.6132736  56.4063126  74.8072211
   0.9219862  56.1612273  75.6794911   1.4108218  56.6109764  74.3191082
   8.6406593  53.1261956  77.9833533   7.8502137  53.1086095  77.4438032
   8.4039948  53.6650250  78.7382569   8.7604468  49.9754422  75.2966261
   8.8102473  49.8104430  76.2381784   8.6518392  49.1081681  74.9064142
   6.0508231  45.9585350  76.6125568   6.9518093  45.8191815  76.3209566
   6.1256205  46.1239805  77.5523745  10.2622665  52.3951364  75.5408283
   9.9707473  52.7581344  76.3771744   9.6494796  51.6818372  75.3621615
  11.4618347  49.9604244  68.0610853  12.2965239  50.3994048  68.2248413
  11.5977476  49.4842897  67.2419099   8.5109853  47.5183978  74.0088341
   8.9863975  47.7111625  73.2007192   7.5875419  47.5743164  73.7631724
   3.0890070  39.5531822  72.9744175   3.6072014  40.2892849  72.6490663
   2.7345203  39.8595815  73.8090934   3.3402664  35.9732105  68.4945071
   3.6204418  35.3055294  69.1205498   4.1253271  36.1661200  67.9819735
   1.1436132  55.1491098  60.0570098   0.5710100  55.7681286  59.6040569
   1.7168926  55.6990460  60.5910020   7.2111522  44.3949739  72.2416646
   8.1628945  44.4947836  72.2628870   7.0414973  43.6028007  72.7514731
   5.2325902  41.4805322  72.4276047   4.6375834  41.7610334  71.7322536
   4.9475598  41.9699223  73.1992788   4.3633392  55.4328249  61.1878680
   5.2964065  55.3673810  61.3911555   4.2756605  56.2684515  60.7293212
   6.9921409  54.7494119  58.1482627   6.9135040  54.4153983  59.0418385
   7.8131076  55.2415887  58.1474100   9.6899600  47.6155858  71.3558946
   9.6575920  46.6771859  71.5418630  10.3000224  47.6939895  70.6224771
   1.5282931  46.4851911  57.3986150   2.4742036  46.3558119  57.4674568
   1.1497176  45.7466573  57.8755578   9.8394089  44.4066902  71.4017229
   9.3233137  43.6225358  71.2147158  10.7234037  44.0785618  71.5663749
   7.5004816  38.1507917  67.3613042   7.3029637  37.8423005  68.2456374
   8.1104521  38.8769556  67.4910972  15.5076150  48.6771865  70.4964983
  16.2379538  48.4157153  71.0572686  14.8983095  47.9400587  70.5367051
  13.5891447  46.8179728  71.0939434  12.8624611  46.6835693  70.4855926
  13.1738734  47.1256556  71.8996152   1.4121624  50.5369657  78.8586807
   2.3324633  50.7148256  79.0526854   1.3771207  49.5925703  78.7066506
   1.3287914  38.9538777  63.4885277   0.5188642  38.6085862  63.8640523
   2.0172331  38.6446321  64.0772888   3.2578462  38.0316824  65.1109573
   3.8109501  38.4512278  65.7699596   3.4948548  37.1052572  65.1532529
   6.6357269  40.1417349  64.6188237   6.0555938  40.8002153  64.2366290
   6.3693202  39.3194694  64.2075655   5.0860836  39.5422407  66.8209558
   5.5860614  39.6538942  66.0123877   5.7296444  39.2383460  67.4610366
   5.4182147  42.3017440  63.6744586   4.5308002  42.5867090  63.4564780
   5.8336136  42.1411203  62.8271863   8.7696683  42.3263961  67.3898925
   9.5457073  42.8160413  67.6623542   8.0444818  42.7522015  67.8470794
  11.2069242  43.0391580  68.4472866  11.8013733  42.7987316  67.7366174
  11.2795826  42.3198710  69.0746402   4.5625361  52.0662114  57.7692606
   5.2661211  52.2712117  58.3850261   3.8388009  52.6338876  58.0341689
   5.3923171  47.8171976  63.8894876   5.3358372  48.2740527  63.0502508
   5.9451513  47.0562660  63.7117719   9.2027977  43.6061707  64.7144995
   8.9464911  43.2058343  65.5453203   8.5780845  44.3205501  64.5895135
  13.5140315  46.3457781  67.2216287  12.9539873  46.4150970  67.9947849
  12.9083818  46.1698765  66.5015783   6.4712058  52.5044644  59.8191066
   7.3057662  52.0725842  59.6368541   6.3096401  52.3326657  60.7467960
   6.1257950  49.0076757  61.1847405   6.0706754  48.8421028  60.2435849
   5.5004006  49.7152790  61.3409595   3.4403857  51.3125669  80.5100968
   4.3095017  51.4866321  80.1487603   2.9610609  52.1320086  80.3876697
   3.2506195  35.1027642  65.0178660   2.4838591  34.5486129  65.1635343
   3.6616900  35.1749511  65.8792812  15.0996333  63.0214295  69.9146243
  15.7374743  62.9021042  69.2109583  14.9817176  63.9695139  69.9734195
  11.9086039  62.9741723  69.8507767  11.5704551  62.8582787  68.9628302
  12.7775808  62.5732888  69.8308773   7.7672855  64.8277199  65.8404658
   7.2037720  64.7367136  65.0720946   7.6525250  64.0077104  66.3207151
  12.3905822  64.1276574  75.8093973  12.3794463  63.7329373  74.9374476
  12.5526462  63.3942647  76.4027744   5.3137287  66.3228391  68.6788879
   6.1058579  65.9819215  68.2635178   5.5533937  66.4323366  69.5991032
  13.3472414  68.4948167  61.1519123  12.6960394  69.0802247  60.7653137
  14.1416777  69.0254362  61.2114161   7.2728041  65.5837304  61.5506257
   8.0458917  65.0366291  61.4119133   7.6253440  66.4481553  61.7620719
   9.1113084  66.9113686  74.7573157   8.8202950  67.8159317  74.6419823
   9.7470068  66.9530214  75.4717226  10.0369290  64.2890535  71.3474516
  10.6332863  64.0646557  70.6331479  10.0944262  63.5475280  71.9499964
   9.6094319  61.7429970  59.1824707   9.8619840  61.2211491  58.4208170
   8.6718878  61.5796116  59.2851391  14.6537602  60.7465748  66.9899451
  15.4400691  60.3285172  66.6389868  14.9176306  61.6511841  67.1581099
  14.8247679  66.1838599  61.6888107  14.1893512  66.2573225  62.4009012
  14.4945085  66.7732198  61.0107187  20.0546029  60.6840982  67.8932429
  20.7871201  60.1140199  68.1270259  19.2985385  60.2962582  68.3338935
   9.3290608  63.6458076  61.3849082   9.2126866  62.9702979  62.0530167
   9.4392868  63.1590450  60.5681235  11.6722149  63.1068223  65.0895772
  11.3080356  62.5798844  65.8008693  12.5289264  62.7166692  64.9162257
  17.5771449  54.3962556  72.3527038  17.2454774  55.2657967  72.1288253
  16.9817063  54.0798840  73.0321068  11.3127636  58.1358123  60.0857120
  11.4802038  59.0038359  60.4527591  11.1224805  58.2985405  59.1618409
  14.0702969  66.5975102  71.7522950  13.7703692  67.5000141  71.6438758
  13.7254028  66.3307285  72.6044103   7.5215450  63.0488899  67.7859655
   6.5965947  62.9165113  67.9937347   7.7699863  63.8283118  68.2829597
  17.4700113  59.1157642  69.4320388  16.5616990  59.0473050  69.1379149
  17.4187708  59.5929587  70.2602213  11.2916856  60.5915780  61.0703787
  11.1716482  61.0372831  61.9089267  10.5969445  60.9401098  60.5117325
   4.8824261  62.6922172  68.6203444   5.0116642  62.9456651  69.5342856
   4.2021713  63.2849880  68.3008099   9.0523749  73.3619422  64.7193918
   8.9747778  74.3127247  64.7982399   8.4485392  73.0165295  65.3768844
  11.5440978  60.5347288  77.3755285  10.7674312  61.0941208  77.3658150
  12.1831541  61.0204071  77.8970155  19.3361759  57.3174080  71.2098262
  18.6936139  57.6106614  70.5638056  18.8316687  57.2027001  72.0151458
  16.9901923  61.0637254  61.8984121  17.9019779  61.2964640  61.7231818
  16.4811570  61.6474298  61.3359200   9.7987351  63.3432741  76.9373252
  10.5402035  63.8817785  76.6608076   9.0924336  63.9699030  77.0944804
  15.2742690  65.4861881  75.5345413  15.6826046  65.0444292  74.7900046
  14.5519952  64.9114509  75.7879606  11.6273760  60.4234488  72.9078970
  12.4734955  60.8473902  73.0513619  11.5672398  59.7668112  73.6017534
  15.5971505  66.0463072  69.2897702  14.9680367  66.2108786  68.5873770
  15.2097167  66.4604682  70.0608666  19.4760737  66.9817510  66.6442066
  18.7911775  67.3616411  66.0939099  19.5604586  67.5912837  67.3774014
  14.7773206  58.0838857  74.5660144  14.5334137  58.8380917  74.0294420
  15.0533136  58.4624204  75.4007391  16.7311668  64.6277469  73.2437410
  16.9428564  65.2709229  72.5671791  16.6841417  63.7939785  72.7759340
  14.3337897  57.2395290  70.1473982  13.4722376  57.5376543  70.4390719
  14.3600332  57.4565688  69.2155014  11.1499467  65.7837480  66.5547787
  11.6137812  66.0625183  65.7652410  10.8856265  64.8820925  66.3720878
   8.0423548  65.3308962  69.4927551   8.6124905  65.7596230  68.8545035
   8.6331660  65.0491546  70.1911736  10.0868353  61.9060632  63.3637353
  10.7892396  62.3581676  63.8311279   9.7548981  61.2644451  63.9917246
   8.5348714  60.4972389  77.7388562   7.9047375  61.1788670  77.9723959
   8.4284802  60.3855471  76.7941700   3.8293687  60.1644185  68.6654486
   3.0392741  60.4201714  68.1894597   4.3204934  60.9792523  68.7706527
  17.8457496  67.5049424  71.4159767  18.6674940  67.1029612  71.1342449
  17.8419899  67.4017658  72.3675883   5.7808432  60.5288764  65.6237963
   4.9839595  60.6407459  66.1421459   5.5534024  60.8675417  64.7578853
  11.6114100  67.0533468  73.5720478  11.6758532  67.5153875  74.4078649
  10.9025024  66.4230833  73.7002787   2.1131390  60.4174676  71.0969477
   2.3639428  61.3021685  71.3627053   2.6490938  60.2379277  70.3244569
  25.9363489  63.8488173  67.7644738  25.1827198  63.2795571  67.6088743
  26.0711031  63.8150837  68.7115373  11.3262117  68.7201575  63.4399458
  11.1907792  69.5653111  63.8684306  11.8671930  68.9220853  62.6765392
   7.8129457  54.7993155  80.1013813   7.4196403  54.2459354  80.7761457
   8.6295597  55.1103733  80.4920331   4.7791515  66.2377013  64.0127383
   5.2916035  67.0320263  64.1632948   5.4314228  65.5403304  63.9460984
   6.5886400  69.3542769  66.0950136   6.7653028  70.2760734  65.9071120
   7.3843233  69.0401189  66.5244516  10.7297418  56.2151034  77.6934070
  11.4707131  56.8158187  77.6138532  10.9615341  55.4728672  77.1352112
   5.8738756  61.4007401  75.9712299   5.7592271  60.4992659  76.2719398
   5.0183274  61.6471098  75.6197116  12.9530594  69.3425142  77.5699800
  12.5094448  68.5561520  77.2520704  13.6147807  69.5304292  76.9043691
   7.7117715  70.8720943  72.0960478   8.2625140  70.7438007  71.3237472
   6.8729191  71.1715832  71.7455371  15.0511832  69.6227942  75.5981201
  15.0330307  70.4436823  75.1061470  15.9731752  69.4982017  75.8231342
  11.5084886  67.1372071  76.4404710  12.0413223  66.3760359  76.2104018
  10.9798967  66.8445723  77.1828864  14.6754581  52.2432137  71.9698351
  14.3318850  53.1333779  71.8937462  15.0433544  52.0533795  71.1067936
   2.7440432  64.5665667  64.7886953   3.5815654  64.9762676  64.5720661
   2.9218699  63.6265110  64.7587147  14.6404864  62.2340748  60.4770786
  14.1251487  63.0045353  60.7159174  14.3682172  61.5605884  61.1003848
  12.2251975  57.0790449  65.5356025  11.3693571  56.6897299  65.3561663
  12.6378927  57.1582410  64.6755810  13.7551121  54.6136792  69.9347585
  13.2515917  54.5766927  69.1215390  14.0481728  55.5229535  69.9944241
   9.9994007  54.6975522  68.9413766  10.8647004  54.5018331  68.5819656
  10.0671516  54.4685874  69.8683123  19.6139138  64.9873103  62.4123960
  18.8368581  64.6484262  61.9679122  20.2930619  64.9925726  61.7378925
  14.4291167  60.1067840  62.3030568  14.1241302  60.4213989  63.1540711
  15.3821609  60.1849260  62.3457901  12.8737599  66.2658064  63.9523522
  12.3458960  65.5310823  63.6396759  12.3725101  67.0432740  63.7063490
  17.8530445  64.4607084  69.0690568  17.1954119  65.1506345  69.1570697
  18.6570844  64.8503516  69.4124554   7.6056326  56.9277730  66.3130133
   8.1800078  56.7052911  65.5803326   8.1927309  56.9966424  67.0658734
  16.6635904  62.8151457  67.1194510  17.1767785  63.4481449  67.6216219
  17.3137127  62.2152652  66.7537870   7.9325913  58.9582191  60.3326018
   7.0963226  59.2956877  60.6535293   7.7930683  58.8231171  59.3953155
   9.9078994  53.8018979  65.0405203   9.2543406  53.4867996  64.4161817
   9.8659468  53.1794719  65.7665025  11.0190199  64.0838274  56.9558495
  10.1117261  63.8527527  57.1549644  11.5161231  63.2875893  57.1432476
  13.9258278  72.7935781  59.8755181  13.2519977  73.0967478  60.4840139
  14.3124100  73.5964861  59.5260638  13.1416734  60.2900912  69.3652850
  12.2239296  60.5115859  69.2074538  13.5576878  60.3647223  68.5064557
  13.9251782  61.6892328  64.4955530  14.6723601  62.2013725  64.1862652
  14.1943372  61.3676381  65.3559924  12.1978432  64.1850869  61.4782485
  11.2889652  63.9009901  61.5754954  12.2273516  64.6049947  60.6185792
  17.4297700  67.7957458  65.2473652  16.9760027  66.9548368  65.3038843
  16.7991666  68.4318856  65.5848432  16.3730619  58.7249444  66.4774320
  15.6353376  58.2126830  66.8084562  16.6257393  58.2849826  65.6657597
  15.8730639  69.6333955  66.1823470  16.1653613  70.1939012  65.4635836
  16.3829260  69.9262516  66.9376629  16.4742247  51.5025696  67.0716089
  16.7801123  50.6423060  66.7842004  17.1994851  52.0943316  66.8715083
   2.7666603  61.9056383  65.4597687   2.5691003  61.3125743  64.7348753
   2.2113267  61.6008593  66.1773626  10.7463326  61.7979489  67.5792280
  10.8011936  60.8453326  67.5034757   9.9354528  61.9538928  68.0633578
  11.8954520  65.7259612  58.8170563  11.4573950  65.0095471  58.3576201
  12.6364961  65.9535727  58.2555655   8.6855686  60.4156549  65.3382659
   7.8723552  60.7150720  65.7447851   9.1814680  60.0212238  66.0557141
  10.8364264  70.4114306  67.2716924  10.7940443  70.6375152  66.3425456
  11.7526963  70.1777680  67.4202725  14.2829898  60.8798373  74.1697553
  14.6379286  61.1069847  75.0292019  14.9302029  61.2116750  73.5474808
  20.0127635  64.0016809  64.8746882  19.8745534  64.1918405  63.9468071
  19.6563854  64.7636192  65.3314933   8.1769761  57.9874904  70.9543894
   8.8169140  57.8463664  70.2566857   7.3447292  57.7009418  70.5782496
  20.0397015  66.0693336  69.8858153  20.4733521  65.9768625  70.7341207
  20.7528595  66.0450837  69.2478169   8.9530065  67.2877335  67.0678886
   9.7470663  66.7927655  66.8661461   8.2421757  66.7595198  66.7046592
  13.7724909  69.6695430  71.4191254  13.8261932  70.2386367  72.1868970
  12.9039691  69.8397315  71.0545291   5.2612828  61.4320417  63.1438639
   4.3310417  61.3704872  63.3608601   5.3570300  60.9096369  62.3475280
   5.1798377  57.9575229  65.7316881   5.4405195  58.8720563  65.6226041
   6.0015550  57.4899672  65.8813493   6.6523303  59.3712987  72.9015705
   7.3246356  59.1630349  72.2528354   5.8253089  59.1735073  72.4620937
  20.9012564  66.1117037  72.4191039  21.0948454  67.0162848  72.6650314
  20.8013182  65.6524456  73.2529624  12.5548875  55.9974928  74.9181366
  11.9076790  56.6964877  74.8245842  13.3249890  56.4311072  75.2857614
  15.9627673  66.2623780  77.9931919  15.8113179  66.0334331  77.0762003
  15.9532352  67.2194381  78.0063264  12.7313009  63.8355692  72.9778186
  13.6605069  63.9866852  72.8047153  12.3104039  63.9239713  72.1226832
  11.5301341  67.8606357  70.7476723  11.3912427  67.4925141  71.6202662
  10.7415937  68.3753996  70.5760681  12.1249493  72.9615453  62.0902260
  12.3001249  72.4903497  62.9047883  11.4382281  73.5881220  62.3183521
  13.0806556  67.2387960  68.1365561  12.7456389  67.1988730  69.0323211
  12.5810502  66.5732676  67.6635971   7.0550800  62.6455590  73.6618142
   6.9170598  61.9135828  74.2629681   7.9655724  62.5564490  73.3802330
  16.0165748  64.5843994  58.4102621  15.3994918  63.8590822  58.3135674
  15.5482236  65.3453354  58.0669695   9.6833101  62.3575549  73.1501822
  10.3932719  61.7168741  73.1088440   9.6402409  62.6088444  74.0728003
  17.6719879  69.2942902  76.0708401  17.6132426  68.6102122  75.4038984
  18.0739398  70.0361892  75.6189027   8.3962035  59.3440767  74.9697461
   7.8599392  58.8931505  75.6219058   7.8078743  59.4786676  74.2267926
   6.6910578  76.1104816  68.8642120   6.9307176  76.7423340  69.5421139
   5.8479775  75.7592856  69.1507479   7.8064294  58.8029418  57.5323925
   6.9293760  58.6818219  57.1686172   8.2822047  58.0115497  57.2802814
  17.6737287  67.2582486  74.3022381  16.7864065  66.9208408  74.4248780
  18.2435838  66.5265517  74.5391146   4.1301156  58.4796775  72.0550456
   4.0459345  57.8722444  71.3200866   3.3083862  58.9705793  72.0559952
  11.2038440  71.9183939  71.2683624  11.1308612  72.7238910  71.7802929
  10.7615833  72.1175904  70.4431645  10.9928220  71.1555709  64.7786446
  10.2095742  71.6977389  64.8724670  11.6920965  71.6729688  65.1780687
  14.3024870  56.9650338  67.4220651  14.7993569  56.2120300  67.1021721
  13.5311851  57.0014655  66.8563860  22.1554627  62.6690704  69.0638943
  22.1444503  63.5515419  68.6932876  21.2872007  62.3162254  68.8693480
  13.6637124  71.8170773  73.4241783  14.3765096  72.4518237  73.3517684
  13.1727152  71.9134639  72.6081785  15.3854651  65.7222025  64.9959074
  14.4510929  65.8423488  64.8263779  15.5631319  64.8194492  64.7319084
  10.8859839  59.1067721  67.1492336  10.5157626  58.5538761  67.8373241
  11.3818931  58.5025855  66.5967336  18.7727202  61.5639345  65.5309109
  19.2387654  62.3967336  65.4569411  19.2234702  61.0984326  66.2354367
   8.7149037  69.5665216  74.2447354   9.4158497  70.2001699  74.3976748
   8.2444152  69.9079948  73.4842993  16.8403433  67.9083166  62.5295261
  17.1163277  67.7939760  63.4389135  15.9707932  67.5100651  62.4907434
  16.7443865  53.9319932  69.5700010  15.8306944  54.1624158  69.7382217
  17.1736966  54.0158376  70.4214042  16.5150323  62.1209824  72.0699904
  15.8621773  62.3685731  71.4152357  16.8930703  61.3073962  71.7362381
  13.4757497  72.1569517  66.1728074  13.6579892  71.3391173  66.6355827
  14.2990483  72.3737209  65.7352964  13.8099662  71.0837702  63.4343123
  14.3387429  70.5730156  62.8213285  14.0727882  70.7680232  64.2988656
  12.5637896  62.8629635  78.5565941  11.8878533  62.7623764  79.2268316
  13.3865530  62.7068848  79.0201938   4.3116755  69.1001571  71.1778456
   4.8970192  68.3545259  71.3106360   4.1141594  69.4105528  72.0615120
   7.1655410  72.1352819  66.1940899   6.4965786  72.6198946  65.7104939
   7.0268280  72.3822039  67.1084277  11.3060679  74.1696562  72.7923557
  11.8578987  74.3328184  73.5572642  11.6466872  74.7601000  72.1203582
   6.2825172  56.5171712  73.3945442   6.3466499  57.3786543  72.9822839
   6.2192292  55.9045713  72.6617800   5.7577445  58.5894844  77.0418476
   6.3849484  58.2071922  77.6556000   4.9005364  58.3709046  77.4074168
  16.1571553  68.9957820  78.6472211  16.7011457  69.6087778  78.1527166
  15.5758398  69.5537398  79.1639224   2.5342988  60.3971273  62.9736831
   2.8296429  59.4881952  62.9203884   1.6331023  60.3759013  62.6517833
  14.4429066  72.1178538  69.7787239  14.3180206  71.3168277  69.2698185
  15.1008157  72.6124731  69.2901209   6.0637235  58.4727270  68.9564379
   5.3423820  59.0863238  68.8171853   6.8530490  59.0085035  68.8781025
  16.5063975  69.9187558  71.4066789  15.5594310  69.7992909  71.3345116
  16.8546748  69.0310056  71.4893051   8.8663548  55.8081697  75.2305031
   9.3897950  56.0543993  75.9931340   8.6475881  56.6401731  74.8108168
   4.2630829  58.0785371  63.0976156   3.9343535  57.1982750  62.9151262
   4.6170200  58.0233040  63.9852545  13.5110408  69.7140274  67.6071141
  13.3635370  68.7856981  67.7878712  14.3363901  69.7360365  67.1228217
   7.3772652  58.3658341  63.4651634   7.7168725  58.8944262  62.7430242
   7.8244773  58.7038747  64.2410200  17.1144530  70.5368833  68.6936014
  18.0391077  70.3311694  68.5560465  16.9459833  70.2885234  69.6025356
  10.0716093  56.7495392  72.9154702   9.7312913  55.9503205  73.3175382
   9.3655099  57.0497103  72.3431535  10.7232565  53.8344704  71.3682025
  11.5458634  53.3605182  71.2460915  10.9670628  54.6135188  71.8680711
   9.3640799  56.8632963  61.6644926  10.0849162  57.2414215  61.1608643
   8.7406104  57.5821839  61.7679904  13.5071922  57.5678112  62.6003259
  13.7235537  58.4502749  62.2992087  13.0265989  57.1764325  61.8708901
   8.2471144  60.5263825  69.1774003   8.1015724  60.8404128  70.0698285
   7.7696347  61.1448725  68.6244902  10.1067527  57.5166373  69.2254893
  10.0929095  56.6207466  68.8887191  10.8239955  57.5237036  69.8593179
  11.9593657  57.9503713  71.2708020  11.7011435  58.8720784  71.2692351
  11.4278698  57.5534147  71.9608484  16.9039846  71.0554500  64.0498106
  17.0776724  70.4900923  63.2971958  17.3968737  71.8555395  63.8677596
   2.7216806  63.0669169  72.1161664   2.1770274  63.8428977  72.2481939
   3.5996156  63.4139974  71.9580786   9.5104422  56.3980753  64.4942463
   9.6320334  55.4697399  64.6933351   9.2206465  56.4119439  63.5820778
  12.3795613  54.0835663  67.6309183  12.4017310  54.1474997  66.6761162
  12.7963672  53.2440172  67.8249689  22.7579237  63.8190923  65.6688405
  23.2010383  63.0698248  65.2707529  21.8805747  63.8101059  65.2862137
  17.8915019  70.3721264  61.1495004  18.5865923  70.9927957  61.3682319
  18.2338169  69.5216616  61.4247382   3.5082828  62.1939065  75.0091821
   2.7664564  62.3421701  75.5956452   3.1875572  62.4547331  74.1458571
  19.7906442  67.8220970  62.6782335  20.3157766  68.1608243  61.9531655
  19.7028794  66.8867985  62.4945469  11.4526490  71.7355044  74.8072211
  11.7613617  71.4904190  75.6794911  12.2501972  71.9401682  74.3191082
  11.4747102  73.8892953  67.0377588  11.0352093  73.3969332  67.7310445
  12.2255219  73.3465921  66.7969663   3.9539441  70.0804494  67.0402216
   4.7797461  69.7808266  66.6600860   3.6033493  69.3112117  67.4892005
   8.9220975  69.4330962  69.1099890   8.3000984  68.7701667  68.8102117
   9.5925841  69.4592094  68.4273537   2.1548046  67.9990821  67.9991150
   1.3179955  67.5712995  67.8175151   2.1271692  68.1923264  68.9361941
   8.9945502  57.9112750  78.7032396   9.0433657  58.7874873  78.3210165
   9.5368016  57.3690143  78.1304039  19.4800348  68.4553874  77.9833533
  18.6895891  68.4378012  77.4438032  19.2433702  68.9942167  78.7382569
  19.5998223  65.3046340  75.2966261  19.6496228  65.1396347  76.2381784
  19.4912146  64.4373599  74.9064142   8.4834481  67.9834886  62.5858350
   8.6322602  68.6670350  61.9325023   9.2900925  67.9639976  63.1007806
  16.8901985  61.2877268  76.6125568  17.7911848  61.1483733  76.3209566
  16.9649960  61.4531723  77.5523745  11.2244790  58.6644123  75.4578754
  10.3548100  58.9577689  75.1861343  11.4604271  59.2484568  76.1786018
  21.1016420  67.7243282  75.5408283  20.8101228  68.0873262  76.3771744
  20.4888551  67.0110290  75.3621615  22.3012102  65.2896161  68.0610853
  23.1358993  65.7285965  68.2248413  22.4371231  64.8134815  67.2419099
  19.3503608  62.8475896  74.0088341  19.8257729  63.0403542  73.2007192
  18.4269173  62.9035082  73.7631724   6.2387114  64.0100063  63.5919419
   5.9933156  63.1062393  63.7899629   6.4083029  64.0117214  62.6498897
  13.9283824  54.8823740  72.9744175  14.4465768  55.6184767  72.6490663
  13.5738957  55.1887733  73.8090934   5.5082762  59.7428421  61.0905581
   4.8152007  59.8172776  60.4345616   5.2634514  58.9788765  61.6127097
  14.1796418  51.3024022  68.4945071  14.4598172  50.6347211  69.1205498
  14.9647025  51.4953118  67.9819735  11.9829887  70.4783016  60.0570098
  11.4103854  71.0973203  59.6040569  12.5562681  71.0282378  60.5910020
  18.0505277  59.7241656  72.2416646  19.0022700  59.8239754  72.2628870
  17.8808727  58.9319925  72.7514731  16.0719656  56.8097239  72.4276047
  15.4769588  57.0902252  71.7322536  15.7869353  57.2991140  73.1992788
  15.2027147  70.7620166  61.1878680  16.1357820  70.6965728  61.3911555
  15.1150360  71.5976433  60.7293212  17.8315163  70.0786037  58.1482627
  17.7528795  69.7445900  59.0418385  18.6524830  70.5707805  58.1474100
  20.5293355  62.9447776  71.3558946  20.4969675  62.0063777  71.5418630
  21.1393978  63.0231813  70.6224771  12.3676685  61.8143829  57.3986150
  13.3135790  61.6850037  57.4674568  11.9890930  61.0758491  57.8755578
  20.6787843  59.7358819  71.4017229  20.1626892  58.9517276  71.2147158
  21.5627792  59.4077536  71.5663749  18.3398570  53.4799835  67.3613042
  18.1423391  53.1714923  68.2456374  18.9498276  54.2061474  67.4910972
  26.3469904  64.0063783  70.4964983  27.0773293  63.7449071  71.0572686
  25.7376850  63.2692505  70.5367051  24.4285202  62.1471645  71.0939434
  23.7018365  62.0127610  70.4855926  24.0132488  62.4548474  71.8996152
  12.2515378  65.8661575  78.8586807  13.1718387  66.0440174  79.0526854
  12.2164961  64.9217620  78.7066506  10.5519603  59.7393805  57.3341035
   9.6451058  59.4426918  57.4103749  10.8295584  59.4423623  56.4675322
   1.4697543  61.0600169  67.7840082   1.1500327  60.2065477  67.4914456
   0.9230971  61.2748747  68.5398049   5.2477451  63.7762610  71.5009588
   5.4663460  64.7079717  71.5197622   5.6603224  63.4170584  72.2864392
  12.1681668  54.2830695  63.4885277  11.3582397  53.9377780  63.8640523
  12.8566085  53.9738239  64.0772888  14.0972217  53.3608742  65.1109573
  14.6503255  53.7804195  65.7699596  14.3342303  52.4344490  65.1532529
  10.1205316  59.3495815  80.8912337  10.0202043  60.2990172  80.8224428
   9.9026858  59.0214054  80.0188407   9.3218387  56.5980740  57.4753014
  10.1837551  56.9235639  57.7348832   9.5068731  55.8112236  56.9626080
   1.3385803  64.6803080  69.7533203   0.6449274  64.2657033  69.2403158
   2.0858794  64.7223617  69.1566622  17.4751024  55.4709267  64.6188237
  16.8949693  56.1294071  64.2366290  17.2086956  54.6486612  64.2075655
  15.9254590  54.8714325  66.8209558  16.4254368  54.9830859  66.0123877
  16.5690198  54.5675378  67.4610366   9.9836586  62.7792954  79.7077399
   9.5003668  63.5793314  79.9141288  10.0697525  62.7900899  78.7544843
   3.2522546  64.6121334  67.6299218   3.2293234  64.7109021  66.6781101
   3.5623182  65.4586485  67.9516384   5.9109923  66.6697489  71.7445833
   6.8653177  66.6381431  71.6775764   5.7122447  66.2088113  72.5596058
   6.5009306  65.2398605  74.3116630   7.3202195  65.7342684  74.3351468
   6.7746113  64.3230573  74.2834198  16.2575902  57.6309357  63.6744586
  15.3701757  57.9159008  63.4564780  16.6729891  57.4703121  62.8271863
  19.6090438  57.6555878  67.3898925  20.3850828  58.1452331  67.6623542
  18.8838572  58.0813933  67.8470794  22.0462996  58.3683498  68.4472866
  22.6407487  58.1279233  67.7366174  22.1189580  57.6490628  69.0746402
   4.2660152  72.2117108  68.7616030   4.1314620  71.4517509  68.1954028
   3.8492214  72.9358008  68.2944819  15.4019115  67.3954032  57.7692606
  16.1054965  67.6004035  58.3850261  14.6781764  67.9630794  58.0341689
  16.2316925  63.1463893  63.8894876  16.1752127  63.6032445  63.0502508
  16.7845268  62.3854578  63.7117719  20.0421731  58.9353625  64.7144995
  19.7858666  58.5350261  65.5453203  19.4174599  59.6497419  64.5895135
  24.3534069  61.6749698  67.2216287  23.7933627  61.7442888  67.9947849
  23.7477573  61.4990683  66.5015783   7.4229278  73.1086425  68.9734473
   7.3061662  74.0531858  68.8713163   6.6021724  72.8059987  69.3620272
  17.3105813  67.8336561  59.8191066  18.1451417  67.4017760  59.6368541
  17.1490156  67.6618575  60.7467960  16.9651705  64.3368675  61.1847405
  16.9100509  64.1712946  60.2435849  16.3397760  65.0444707  61.3409595
   1.7544220  59.5736739  75.0108827   2.4003083  59.0635693  75.4996052
   1.5461371  60.3105421  75.5852253  14.2797612  66.6417586  80.5100968
  15.1488772  66.8158239  80.1487603  13.8004363  67.4612003  80.3876697
  10.2747830  53.8376784  60.7632723  10.2626500  54.7818623  60.9200994
  11.1671252  53.6546929  60.4692185   8.4483792  73.7614687  72.1890401
   9.3511039  73.7938298  72.5056896   8.2221162  72.8315138  72.2036737
  10.2037394  72.5145674  68.8500480   9.2533025  72.5147536  68.7364852
  10.5069880  71.7678409  68.3336515  14.0899950  50.4319560  65.0178660
  13.3232346  49.8778047  65.1635343  14.5010655  50.5041429  65.8792812
   6.0941711  56.7204356  79.1083842   6.9573172  56.3641161  79.3187166
   5.5207121  56.3818251  79.7959246  25.9390088  78.3506212  69.9146243
  26.5768498  78.2312960  69.2109583  25.8210931  79.2987056  69.9734195
  22.7479794  78.3033640  69.8507767  22.4098305  78.1874705  68.9628302
  23.6169562  77.9024806  69.8308773  18.6066610  80.1569117  65.8404658
  18.0431475  80.0659054  65.0720946  18.4919005  79.3369021  66.3207151
  23.2299577  79.4568492  75.8093973  23.2188218  79.0621290  74.9374476
  23.3920216  78.7234565  76.4027744  16.1531042  81.6520308  68.6788879
  16.9452334  81.3111133  68.2635178  16.3927692  81.7615283  69.5991032
  24.1866168  83.8240085  61.1519123  23.5354148  84.4094165  60.7653137
  24.9810531  84.3546279  61.2114161  18.1121796  80.9129222  61.5506257
  18.8852672  80.3658209  61.4119133  18.4647194  81.7773471  61.7620719
  19.9506838  82.2405604  74.7573157  19.6596704  83.1451235  74.6419823
  20.5863822  82.2822132  75.4717226  20.8763045  79.6182452  71.3474516
  21.4726617  79.3938475  70.6331479  20.9338016  78.8767198  71.9499964
  20.4488073  77.0721888  59.1824707  20.7013594  76.5503409  58.4208170
  19.5112632  76.9088033  59.2851391  25.4931356  76.0757666  66.9899451
  26.2794445  75.6577089  66.6389868  25.7570061  76.9803758  67.1581099
  25.6641434  81.5130516  61.6888107  25.0287267  81.5865143  62.4009012
  25.3338840  82.1024115  61.0107187  30.8939783  76.0132899  67.8932429
  31.6264955  75.4432116  68.1270259  30.1379139  75.6254500  68.3338935
  20.1684362  78.9749994  61.3849082  20.0520620  78.2994897  62.0530167
  20.2786622  78.4882368  60.5681235  22.5115903  78.4360141  65.0895772
  22.1474110  77.9090762  65.8008693  23.3683019  78.0458610  64.9162257
  28.4165204  69.7254473  72.3527038  28.0848528  70.5949884  72.1288253
  27.8210817  69.4090757  73.0321068  22.1521390  73.4650041  60.0857120
  22.3195792  74.3330277  60.4527591  21.9618559  73.6277322  59.1618409
  24.9096723  81.9267019  71.7522950  24.6097446  82.8292058  71.6438758
  24.5647783  81.6599203  72.6044103  18.3609205  78.3780816  67.7859655
  17.4359701  78.2457030  67.9937347  18.6093618  79.1575036  68.2829597
  28.3093867  74.4449560  69.4320388  27.4010744  74.3764968  69.1379149
  28.2581463  74.9221505  70.2602213  22.1310611  75.9207698  61.0703787
  22.0110236  76.3664749  61.9089267  21.4363199  76.2693016  60.5117325
  15.7218016  78.0214090  68.6203444  15.8510397  78.2748569  69.5342856
  15.0415467  78.6141798  68.3008099  19.8917503  88.6911340  64.7193918
  19.8141533  89.6419165  64.7982399  19.2879147  88.3457212  65.3768844
  22.3834733  75.8639205  77.3755285  21.6068067  76.4233125  77.3658150
  23.0225296  76.3495988  77.8970155  30.1755513  72.6465998  71.2098262
  29.5329894  72.9398531  70.5638056  29.6710442  72.5318918  72.0151458
  27.8295677  76.3929171  61.8984121  28.7413533  76.6256558  61.7231818
  27.3205324  76.9766215  61.3359200  20.6381105  78.6724659  76.9373252
  21.3795789  79.2109703  76.6608076  19.9318091  79.2990947  77.0944804
  26.1136445  80.8153799  75.5345413  26.5219801  80.3736210  74.7900046
  25.3913706  80.2406427  75.7879606  22.4667515  75.7526406  72.9078970
  23.3128710  76.1765819  73.0513619  22.4066152  75.0960030  73.6017534
  26.4365259  81.3754990  69.2897702  25.8074122  81.5400704  68.5873770
  26.0490921  81.7896599  70.0608666  30.3154491  82.3109428  66.6442066
  29.6305529  82.6908329  66.0939099  30.3998341  82.9204754  67.3774014
  25.6166960  73.4130774  74.5660144  25.3727892  74.1672835  74.0294420
  25.8926891  73.7916122  75.4007391  27.5705423  79.9569387  73.2437410
  27.7822318  80.6001146  72.5671791  27.5235171  79.1231703  72.7759340
  25.1731652  72.5687207  70.1473982  24.3116131  72.8668461  70.4390719
  25.1994086  72.7857606  69.2155014  21.9893221  81.1129398  66.5547787
  22.4531567  81.3917101  65.7652410  21.7250019  80.2112842  66.3720878
  18.8817302  80.6600879  69.4927551  19.4518659  81.0888148  68.8545035
  19.4725414  80.3783464  70.1911736  20.9262107  77.2352550  63.3637353
  21.6286151  77.6873594  63.8311279  20.5942736  76.5936369  63.9917246
  19.3742469  75.8264307  77.7388562  18.7441129  76.5080588  77.9723959
  19.2678557  75.7147388  76.7941700  14.6687441  75.4936103  68.6654486
  13.8786495  75.7493631  68.1894597  15.1598689  76.3084441  68.7706527
  28.6851251  82.8341342  71.4159767  29.5068695  82.4321529  71.1342449
  28.6813654  82.7309576  72.3675883  16.6202187  75.8580682  65.6237963
  15.8233350  75.9699376  66.1421459  16.3927779  76.1967334  64.7578853
  22.4507854  82.3825385  73.5720478  22.5152287  82.8445793  74.4078649
  21.7418778  81.7522750  73.7002787  12.9525144  75.7466593  71.0969477
  13.2033183  76.6313603  71.3627053  13.4884693  75.5671195  70.3244569
  36.7757244  79.1780090  67.7644738  36.0220952  78.6087489  67.6088743
  36.9104785  79.1442755  68.7115373  22.1655872  84.0493493  63.4399458
  22.0301547  84.8945029  63.8684306  22.7065684  84.2512770  62.6765392
  18.6523212  70.1285073  80.1013813  18.2590157  69.5751271  80.7761457
  19.4689352  70.4395651  80.4920331  15.6185269  81.5668931  64.0127383
  16.1309790  82.3612181  64.1632948  16.2707982  80.8695221  63.9460984
  17.4280154  84.6834687  66.0950136  17.6046782  85.6052652  65.9071120
  18.2236988  84.3693106  66.5244516  21.5691173  71.5442952  77.6934070
  22.3100886  72.1450105  77.6138532  21.8009095  70.8020590  77.1352112
  16.7132511  76.7299319  75.9712299  16.5986026  75.8284576  76.2719398
  15.8577028  76.9763016  75.6197116  23.7924348  84.6717059  77.5699800
  23.3488202  83.8853438  77.2520704  24.4541562  84.8596210  76.9043691
  18.5511469  86.2012861  72.0960478  19.1018895  86.0729924  71.3237472
  17.7122945  86.5007750  71.7455371  25.8905586  84.9519859  75.5981201
  25.8724062  85.7728740  75.1061470  26.8125506  84.8273934  75.8231342
  22.3478641  82.4663989  76.4404710  22.8806977  81.7052277  76.2104018
  21.8192722  82.1737641  77.1828864  25.5148335  67.5724055  71.9698351
  25.1712605  68.4625696  71.8937462  25.8827298  67.3825712  71.1067936
  13.5834186  79.8957585  64.7886953  14.4209408  80.3054593  64.5720661
  13.7612454  78.9557027  64.7587147  25.4798618  77.5632666  60.4770786
  24.9645242  78.3337270  60.7159174  25.2075927  76.8897802  61.1003848
  23.0645729  72.4082367  65.5356025  22.2087326  72.0189217  65.3561663
  23.4772681  72.4874327  64.6755810  24.5944876  69.9428710  69.9347585
  24.0909671  69.9058845  69.1215390  24.8875483  70.8521453  69.9944241
  20.8387762  70.0267440  68.9413766  21.7040759  69.8310248  68.5819656
  20.9065271  69.7977791  69.8683123  30.4532892  80.3165020  62.4123960
  29.6762335  79.9776180  61.9679122  31.1324373  80.3217644  61.7378925
  25.2684921  75.4359758  62.3030568  24.9635057  75.7505907  63.1540711
  26.2215363  75.5141178  62.3457901  23.7131353  81.5949981  63.9523522
  23.1852715  80.8602741  63.6396759  23.2118856  82.3724658  63.7063490
  28.6924199  79.7899002  69.0690568  28.0347874  80.4798263  69.1570697
  29.4964598  80.1795434  69.4124554  18.4450081  72.2569647  66.3130133
  19.0193833  72.0344829  65.5803326  19.0321063  72.3258342  67.0658734
  27.5029658  78.1443374  67.1194510  28.0161540  78.7773366  67.6216219
  28.1530882  77.5444570  66.7537870  18.7719668  74.2874108  60.3326018
  17.9356980  74.6248795  60.6535293  18.6324438  74.1523088  59.3953155
  20.7472749  69.1310896  65.0405203  20.0937161  68.8159914  64.4161817
  20.7053223  68.5086637  65.7665025  21.8583953  79.4130191  56.9558495
  20.9511015  79.1819445  57.1549644  22.3554985  78.6167811  57.1432476
  24.7652032  88.1227699  59.8755181  24.0913731  88.4259395  60.4840139
  25.1517854  88.9256779  59.5260638  23.9810489  75.6192830  69.3652850
  23.0633050  75.8407777  69.2074538  24.3970633  75.6939140  68.5064557
  24.7645537  77.0184246  64.4955530  25.5117356  77.5305643  64.1862652
  25.0337126  76.6968298  65.3559924  23.0372187  79.5142786  61.4782485
  22.1283406  79.2301819  61.5754954  23.0667271  79.9341865  60.6185792
  28.2691454  83.1249376  65.2473652  27.8153781  82.2840286  65.3038843
  27.6385421  83.7610774  65.5848432  27.2124374  74.0541362  66.4774320
  26.4747131  73.5418748  66.8084562  27.4651147  73.6141743  65.6657597
  26.7124393  84.9625872  66.1823470  27.0047368  85.5230930  65.4635836
  27.2223014  85.2554433  66.9376629  27.3136001  66.8317614  67.0716089
  27.6194878  65.9714977  66.7842004  28.0388606  67.4235234  66.8715083
  13.6060357  77.2348300  65.4597687  13.4084757  76.6417661  64.7348753
  13.0507021  76.9300511  66.1773626  21.5857081  77.1271407  67.5792280
  21.6405691  76.1745243  67.5034757  20.7748283  77.2830846  68.0633578
  22.7348275  81.0551530  58.8170563  22.2967705  80.3387389  58.3576201
  23.4758716  81.2827645  58.2555655  19.5249441  75.7448467  65.3382659
  18.7117306  76.0442637  65.7447851  20.0208435  75.3504155  66.0557141
  21.6758019  85.7406224  67.2716924  21.6334197  85.9667070  66.3425456
  22.5920718  85.5069598  67.4202725  25.1223652  76.2090291  74.1697553
  25.4773040  76.4361764  75.0292019  25.7695784  76.5408668  73.5474808
  30.8521389  79.3308727  64.8746882  30.7139288  79.5210323  63.9468071
  30.4957608  80.0928110  65.3314933  19.0163516  73.3166822  70.9543894
  19.6562895  73.1755581  70.2566857  18.1841046  73.0301336  70.5782496
  30.8790769  81.3985254  69.8858153  31.3127276  81.3060543  70.7341207
  31.5922350  81.3742754  69.2478169  19.7923819  82.6169253  67.0678886
  20.5864418  82.1219573  66.8661461  19.0815512  82.0887116  66.7046592
  24.6118664  84.9987348  71.4191254  24.6655686  85.5678284  72.1868970
  23.7433445  85.1689233  71.0545291  16.1006583  76.7612334  63.1438639
  15.1704171  76.6996790  63.3608601  16.1964055  76.2388287  62.3475280
  16.0192132  73.2867147  65.7316881  16.2798949  74.2012480  65.6226041
  16.8409304  72.8191590  65.8813493  17.4917057  74.7004904  72.9015705
  18.1640111  74.4922266  72.2528354  16.6646844  74.5026990  72.4620937
  31.7406319  81.4408955  72.4191039  31.9342209  82.3454765  72.6650314
  31.6406937  80.9816374  73.2529624  23.3942629  71.3266845  74.9181366
  22.7470544  72.0256795  74.8245842  24.1643645  71.7602989  75.2857614
  26.8021427  81.5915697  77.9931919  26.6506934  81.3626249  77.0762003
  26.7926107  82.5486299  78.0063264  23.5706764  79.1647610  72.9778186
  24.4998824  79.3158770  72.8047153  23.1497794  79.2531631  72.1226832
  22.3695095  83.1898275  70.7476723  22.2306181  82.8217059  71.6202662
  21.5809692  83.7045914  70.5760681  22.9643247  88.2907371  62.0902260
  23.1395003  87.8195414  62.9047883  22.2776035  88.9173137  62.3183521
  23.9200311  82.5679877  68.1365561  23.5850143  82.5280647  69.0323211
  23.4204256  81.9024593  67.6635971  17.8944555  77.9747507  73.6618142
  17.7564353  77.2427746  74.2629681  18.8049478  77.8856407  73.3802330
  26.8559502  79.9135912  58.4102621  26.2388673  79.1882740  58.3135674
  26.3875991  80.6745272  58.0669695  20.5226855  77.6867467  73.1501822
  21.2326474  77.0460659  73.1088440  20.4796163  77.9380361  74.0728003
  28.5113634  84.6234820  76.0708401  28.4526180  83.9394040  75.4038984
  28.9133152  85.3653810  75.6189027  19.2355789  74.6732685  74.9697461
  18.6993146  74.2223423  75.6219058  18.6472498  74.8078593  74.2267926
  17.5304333  91.4396734  68.8642120  17.7700931  92.0715258  69.5421139
  16.6873529  91.0884774  69.1507479  18.6458048  74.1321336  57.5323925
  17.7687514  74.0110137  57.1686172  19.1215801  73.3407414  57.2802814
  28.5131041  82.5874404  74.3022381  27.6257820  82.2500326  74.4248780
  29.0829592  81.8557435  74.5391146  10.1660188  78.9198496  67.6265432
  10.8531228  78.6060226  67.0386448  10.0108317  79.8239860  67.3532684
  14.9694910  73.8088692  72.0550456  14.8853099  73.2014362  71.3200866
  14.1477617  74.2997711  72.0559952  22.0432195  87.2475856  71.2683624
  21.9702366  88.0530828  71.7802929  21.6009588  87.4467822  70.4431645
  21.8321974  86.4847626  64.7786446  21.0489496  87.0269306  64.8724670
  22.5314719  87.0021606  65.1780687  25.1418624  72.2942256  67.4220651
  25.6387324  71.5412218  67.1021721  24.3705606  72.3306572  66.8563860
  32.9948382  77.9982621  69.0638943  32.9838258  78.8807337  68.6932876
  32.1265761  77.6454172  68.8693480  24.5030878  87.1462690  73.4241783
  25.2158850  87.7810155  73.3517684  24.0120907  87.2426556  72.6081785
  26.2248405  81.0513943  64.9959074  25.2904684  81.1715405  64.8263779
  26.4025073  80.1486410  64.7319084  21.7253593  74.4359639  67.1492336
  21.3551381  73.8830679  67.8373241  22.2212686  73.8317772  66.5967336
  29.6120956  76.8931262  65.5309109  30.0781409  77.7259254  65.4569411
  30.0628457  76.4276244  66.2354367  19.5542792  84.8957134  74.2447354
  20.2552251  85.5293617  74.3976748  19.0837907  85.2371865  73.4842993
  27.6797187  83.2375084  62.5295261  27.9557031  83.1231678  63.4389135
  26.8101686  82.8392568  62.4907434  27.5837619  69.2611849  69.5700010
  26.6700699  69.4916076  69.7382217  28.0130721  69.3450293  70.4214042
  27.3544078  77.4501741  72.0699904  26.7015528  77.6977649  71.4152357
  27.7324457  76.6365879  71.7362381  24.3151251  87.4861434  66.1728074
  24.4973646  86.6683090  66.6355827  25.1384237  87.7029127  65.7352964
  24.6493417  86.4129620  63.4343123  25.1781183  85.9022074  62.8213285
  24.9121637  86.0972150  64.2988656  23.4031651  78.1921552  78.5565941
  22.7272288  78.0915682  79.2268316  24.2259285  78.0360766  79.0201938
  15.1510510  84.4293489  71.1778456  15.7363947  83.6837177  71.3106360
  14.9535348  84.7397446  72.0615120  18.0049165  87.4644736  66.1940899
  17.3359540  87.9490864  65.7104939  17.8662035  87.7113957  67.1084277
   9.7428164  76.9999089  69.8982899   9.7812264  76.4662680  70.6920018
   9.2368457  76.4734295  69.2793877  22.1454434  89.4988480  72.7923557
  22.6972742  89.6620101  73.5572642  22.4860627  90.0892918  72.1203582
  17.1218927  71.8463630  73.3945442  17.1860253  72.7078460  72.9822839
  17.0586047  71.2337631  72.6617800  16.5971199  73.9186762  77.0418476
  17.2243238  73.5363839  77.6556000  15.7399118  73.7000964  77.4074168
  26.9965308  84.3249737  78.6472211  27.5405212  84.9379695  78.1527166
  26.4152153  84.8829316  79.1639224  13.3736742  75.7263191  62.9736831
  13.6690183  74.8173870  62.9203884  12.4724778  75.7050931  62.6517833
  25.2822821  87.4470455  69.7787239  25.1573960  86.6460195  69.2698185
  25.9401912  87.9416649  69.2901209  16.9030989  73.8019188  68.9564379
  16.1817575  74.4155155  68.8171853  17.6924245  74.3376953  68.8781025
  27.3457729  85.2479475  71.4066789  26.3988065  85.1284827  71.3345116
  27.6940502  84.3601973  71.4893051  19.7057303  71.1373614  75.2305031
  20.2291704  71.3835911  75.9931340  19.4869636  71.9693649  74.8108168
  15.1024584  73.4077289  63.0976156  14.7737290  72.5274668  62.9151262
  15.4563954  73.3524958  63.9852545  24.3504162  85.0432192  67.6071141
  24.2029125  84.1148899  67.7878712  25.1757656  85.0652282  67.1228217
  18.2166407  73.6950259  63.4651634  18.5562479  74.2236180  62.7430242
  18.6638527  74.0330665  64.2410200  27.9538284  85.8660750  68.6936014
  28.8784832  85.6603612  68.5560465  27.7853588  85.6177151  69.6025356
  20.9109848  72.0787309  72.9154702  20.5706668  71.2795122  73.3175382
  20.2048854  72.3789020  72.3431535  21.5626319  69.1636622  71.3682025
  22.3852389  68.6897100  71.2460915  21.8064383  69.9427106  71.8680711
  20.2034554  72.1924880  61.6644926  20.9242916  72.5706133  61.1608643
  19.5799858  72.9113757  61.7679904  24.3465677  72.8970029  62.6003259
  24.5629291  73.7794667  62.2992087  23.8659744  72.5056243  61.8708901
  19.0864898  75.8555742  69.1774003  18.9409479  76.1696045  70.0698285
  18.6090102  76.4740643  68.6244902  20.9461281  72.8458290  69.2254893
  20.9322850  71.9499384  68.8887191  21.6633709  72.8528954  69.8593179
  22.7987412  73.2795631  71.2708020  22.5405190  74.2012701  71.2692351
  22.2672452  72.8826065  71.9608484  27.7433601  86.3846418  64.0498106
  27.9170478  85.8192840  63.2971958  28.2362492  87.1847313  63.8677596
  13.5610560  78.3961087  72.1161664  13.0164028  79.1720895  72.2481939
  14.4389910  78.7431891  71.9580786  20.3498177  71.7272671  64.4942463
  20.4714088  70.7989317  64.6933351  20.0600219  71.7411357  63.5820778
  23.2189367  69.4127581  67.6309183  23.2411064  69.4766914  66.6761162
  23.6357426  68.5732090  67.8249689  33.5972992  79.1482841  65.6688405
  34.0404138  78.3990166  65.2707529  32.7199502  79.1392977  65.2862137
  28.7308773  85.7013182  61.1495004  29.4259678  86.3219875  61.3682319
  29.0731923  84.8508533  61.4247382  14.3476582  77.5230983  75.0091821
  13.6058318  77.6713618  75.5956452  14.0269326  77.7839249  74.1458571
  30.6300196  83.1512888  62.6782335  31.1551520  83.4900160  61.9531655
  30.5422549  82.2159903  62.4945469  22.2920245  87.0646961  74.8072211
  22.6007371  86.8196108  75.6794911  23.0895727  87.2693600  74.3191082
  22.3140857  89.2184871  67.0377588  21.8745847  88.7261250  67.7310445
  23.0648974  88.6757839  66.7969663  14.7933196  85.4096412  67.0402216
  15.6191216  85.1100184  66.6600860  14.4427248  84.6404034  67.4892005
  19.7614729  84.7622880  69.1099890  19.1394738  84.0993585  68.8102117
  20.4319596  84.7884012  68.4273537  12.9941801  83.3282738  67.9991150
  12.1573709  82.9004913  67.8175151  12.9665446  83.5215182  68.9361941
  19.8339257  73.2404668  78.7032396  19.8827412  74.1166791  78.3210165
  20.3761771  72.6982061  78.1304039  30.3194102  83.7845791  77.9833533
  29.5289646  83.7669930  77.4438032  30.0827457  84.3234085  78.7382569
  30.4391977  80.6338258  75.2966261  30.4889982  80.4688265  76.2381784
  30.3305901  79.7665517  74.9064142  19.3228236  83.3126803  62.5858350
  19.4716356  83.9962268  61.9325023  20.1294679  83.2931893  63.1007806
  27.7295740  76.6169186  76.6125568  28.6305602  76.4775651  76.3209566
  27.8043714  76.7823641  77.5523745  22.0638545  73.9936040  75.4578754
  21.1941854  74.2869607  75.1861343  22.2998025  74.5776485  76.1786018
  31.9410174  83.0535199  75.5408283  31.6494982  83.4165180  76.3771744
  31.3282305  82.3402207  75.3621615  33.1405856  80.6188079  68.0610853
  33.9752748  81.0577883  68.2248413  33.2764985  80.1426732  67.2419099
  30.1897362  78.1767814  74.0088341  30.6651484  78.3695460  73.2007192
  29.2662928  78.2327000  73.7631724  17.0780869  79.3391981  63.5919419
  16.8326911  78.4354311  63.7899629  17.2476783  79.3409131  62.6498897
  24.7677579  70.2115657  72.9744175  25.2859523  70.9476684  72.6490663
  24.4132712  70.5179651  73.8090934  16.3476516  75.0720339  61.0905581
  15.6545761  75.1464694  60.4345616  16.1028268  74.3080682  61.6127097
  25.0190173  66.6315940  68.4945071  25.2991927  65.9639129  69.1205498
  25.8040780  66.8245036  67.9819735  22.8223641  85.8074934  60.0570098
  22.2497609  86.4265121  59.6040569  23.3956435  86.3574296  60.5910020
  28.8899031  75.0533574  72.2416646  29.8416454  75.1531672  72.2628870
  28.7202482  74.2611842  72.7514731  26.9113411  72.1389157  72.4276047
  26.3163343  72.4194170  71.7322536  26.6263107  72.6283058  73.1992788
  26.0420901  86.0912084  61.1878680  26.9751574  86.0257646  61.3911555
  25.9544114  86.9268351  60.7293212  28.6708918  85.4077954  58.1482627
  28.5922549  85.0737818  59.0418385  29.4918585  85.8999722  58.1474100
  31.3687109  78.2739694  71.3558946  31.3363429  77.3355694  71.5418630
  31.9787733  78.3523730  70.6224771  23.2070440  77.1435747  57.3986150
  24.1529545  77.0141955  57.4674568  22.8284685  76.4050408  57.8755578
  31.5181598  75.0650737  71.4017229  31.0020646  74.2809194  71.2147158
  32.4021546  74.7369454  71.5663749  29.1792324  68.8091753  67.3613042
  28.9817146  68.5006841  68.2456374  29.7892030  69.5353392  67.4910972
  37.1863659  79.3355700  70.4964983  37.9167047  79.0740989  71.0572686
  36.5770604  78.5984422  70.5367051  35.2678956  77.4763563  71.0939434
  34.5412120  77.3419528  70.4855926  34.8526243  77.7840392  71.8996152
  23.0909132  81.1953493  78.8586807  24.0112142  81.3732092  79.0526854
  23.0558716  80.2509538  78.7066506  21.3913357  75.0685723  57.3341035
  20.4844812  74.7718836  57.4103749  21.6689338  74.7715541  56.4675322
  12.3091297  76.3892086  67.7840082  11.9894082  75.5357395  67.4914456
  11.7624726  76.6040665  68.5398049  16.0871205  79.1054527  71.5009588
  16.3057215  80.0371635  71.5197622  16.4996979  78.7462502  72.2864392
  23.0075423  69.6122613  63.4885277  22.1976151  69.2669698  63.8640523
  23.6959840  69.3030156  64.0772888  24.9365971  68.6900659  65.1109573
  25.4897010  69.1096113  65.7699596  25.1736057  67.7636408  65.1532529
  20.9599070  74.6787733  80.8912337  20.8595797  75.6282090  80.8224428
  20.7420612  74.3505972  80.0188407  20.1612142  71.9272658  57.4753014
  21.0231306  72.2527556  57.7348832  20.3462486  71.1404154  56.9626080
  12.1779557  80.0094998  69.7533203  11.4843029  79.5948951  69.2403158
  12.9252548  80.0515534  69.1566622  28.3144778  70.8001185  64.6188237
  27.7343447  71.4585989  64.2366290  28.0480711  69.9778529  64.2075655
  26.7648345  70.2006242  66.8209558  27.2648123  70.3122777  66.0123877
  27.4083952  69.8967295  67.4610366  20.8230340  78.1084872  79.7077399
  20.3397422  78.9085232  79.9141288  20.9091279  78.1192817  78.7544843
  14.0916300  79.9413252  67.6299218  14.0686988  80.0400939  66.6781101
  14.4016937  80.7878402  67.9516384  16.7503678  81.9989407  71.7445833
  17.7046931  81.9673349  71.6775764  16.5516201  81.5380030  72.5596058
  17.3403060  80.5690523  74.3116630  18.1595949  81.0634601  74.3351468
  17.6139868  79.6522491  74.2834198  27.0969656  72.9601275  63.6744586
  26.2095511  73.2450926  63.4564780  27.5123645  72.7995038  62.8271863
  30.4484192  72.9847796  67.3898925  31.2244582  73.4744248  67.6623542
  29.7232327  73.4105850  67.8470794  32.8856751  73.6975415  68.4472866
  33.4801242  73.4571151  67.7366174  32.9583335  72.9782546  69.0746402
  15.1053907  87.5409026  68.7616030  14.9708375  86.7809427  68.1954028
  14.6885969  88.2649926  68.2944819  26.2412870  82.7245950  57.7692606
  26.9448720  82.9295952  58.3850261  25.5175518  83.2922712  58.0341689
  27.0710680  78.4755811  63.8894876  27.0145881  78.9324362  63.0502508
  27.6239022  77.7146496  63.7117719  30.8815486  74.2645543  64.7144995
  30.6252420  73.8642178  65.5453203  30.2568354  74.9789337  64.5895135
  35.1927824  77.0041616  67.2216287  34.6327382  77.0734805  67.9947849
  34.5871327  76.8282601  66.5015783  18.2623033  88.4378343  68.9734473
  18.1455417  89.3823776  68.8713163  17.4415479  88.1351905  69.3620272
  28.1499567  83.1628479  59.8191066  28.9845171  82.7309677  59.6368541
  27.9883910  82.9910493  60.7467960  27.8045459  79.6660592  61.1847405
  27.7494263  79.5004864  60.2435849  27.1791515  80.3736625  61.3409595
  12.5937974  74.9028657  75.0108827  13.2396838  74.3927611  75.4996052
  12.3855125  75.6397338  75.5852253  25.1191366  81.9709504  80.5100968
  25.9882526  82.1450156  80.1487603  24.6398118  82.7903921  80.3876697
  21.1141585  69.1668701  60.7632723  21.1020255  70.1110541  60.9200994
  22.0065007  68.9838847  60.4692185  19.2877547  89.0906605  72.1890401
  20.1904793  89.1230215  72.5056896  19.0614917  88.1607056  72.2036737
  21.0431149  87.8437592  68.8500480  20.0926780  87.8439453  68.7364852
  21.3463635  87.0970326  68.3336515  24.9293704  65.7611478  65.0178660
  24.1626100  65.2069965  65.1635343  25.3404409  65.8333347  65.8792812
  16.9335465  72.0496274  79.1083842  17.7966927  71.6933078  79.3187166
  16.3600876  71.7110168  79.7959246  36.7783842  93.6798130  69.9146243
  37.4162252  93.5604877  69.2109583  36.6604685  94.6278974  69.9734195
  33.5873548  93.6325558  69.8507767  33.2492060  93.5166623  68.9628302
  34.4563317  93.2316723  69.8308773  29.4460364  95.4861035  65.8404658
  28.8825229  95.3950971  65.0720946  29.3312759  94.6660939  66.3207151
  34.0693331  94.7860410  75.8093973  34.0581972  94.3913208  74.9374476
  34.2313971  94.0526482  76.4027744  26.9924796  96.9812226  68.6788879
  27.7846088  96.6403051  68.2635178  27.2321446  97.0907201  69.5991032
  35.0259923  99.1532002  61.1519123  34.3747903  99.7386083  60.7653137
  35.8204286  99.6838197  61.2114161  28.9515550  96.2421139  61.5506257
  29.7246426  95.6950126  61.4119133  29.3040949  97.1065389  61.7620719
  30.7900593  97.5697522  74.7573157  30.4990459  98.4743152  74.6419823
  31.4257577  97.6114049  75.4717226  31.7156799  94.9474370  71.3474516
  32.3120372  94.7230393  70.6331479  31.7731771  94.2059116  71.9499964
  31.2881828  92.4013805  59.1824707  31.5407349  91.8795327  58.4208170
  30.3506387  92.2379951  59.2851391  36.3325111  91.4049584  66.9899451
  37.1188200  90.9869007  66.6389868  36.5963815  92.3095676  67.1581099
  36.5035188  96.8422434  61.6888107  35.8681021  96.9157061  62.4009012
  36.1732594  97.4316033  61.0107187  41.7333538  91.3424817  67.8932429
  42.4658710  90.7724034  68.1270259  40.9772894  90.9546417  68.3338935
  31.0078117  94.3041911  61.3849082  30.8914375  93.6286815  62.0530167
  31.1180376  93.8174285  60.5681235  33.3509658  93.7652059  65.0895772
  32.9867865  93.2382680  65.8008693  34.2076773  93.3750528  64.9162257
  39.2558958  85.0546391  72.3527038  38.9242283  85.9241802  72.1288253
  38.6604572  84.7382675  73.0321068  32.9915145  88.7941958  60.0857120
  33.1589547  89.6622195  60.4527591  32.8012314  88.9569240  59.1618409
  35.7490478  97.2558937  71.7522950  35.4491201  98.1583976  71.6438758
  35.4041537  96.9891120  72.6044103  29.2002959  93.7072734  67.7859655
  28.2753456  93.5748948  67.9937347  29.4487372  94.4866953  68.2829597
  39.1487621  89.7741477  69.4320388  38.2404499  89.7056886  69.1379149
  39.0975217  90.2513422  70.2602213  32.9704365  91.2499616  61.0703787
  32.8503991  91.6956667  61.9089267  32.2756954  91.5984933  60.5117325
  26.5611770  93.3506008  68.6203444  26.6904151  93.6040486  69.5342856
  25.8809222  93.9433716  68.3008099  30.7311257 104.0203257  64.7193918
  30.6535287 104.9711083  64.7982399  30.1272901 103.6749130  65.3768844
  33.2228487  91.1931123  77.3755285  32.4461821  91.7525043  77.3658150
  33.8619050  91.6787906  77.8970155  41.0149268  87.9757916  71.2098262
  40.3723648  88.2690449  70.5638056  40.5104196  87.8610836  72.0151458
  38.6689432  91.7221089  61.8984121  39.5807288  91.9548476  61.7231818
  38.1599079  92.3058133  61.3359200  31.4774860  94.0016576  76.9373252
  32.2189544  94.5401620  76.6608076  30.7711845  94.6282865  77.0944804
  36.9530199  96.1445717  75.5345413  37.3613555  95.7028127  74.7900046
  36.2307461  95.5698344  75.7879606  33.3061269  91.0818324  72.9078970
  34.1522464  91.5057737  73.0513619  33.2459907  90.4251948  73.6017534
  37.2759014  96.7046907  69.2897702  36.6467876  96.8692622  68.5873770
  36.8884676  97.1188517  70.0608666  41.1548246  97.6401345  66.6442066
  40.4699284  98.0200247  66.0939099  41.2392095  98.2496672  67.3774014
  36.4560715  88.7422692  74.5660144  36.2121646  89.4964752  74.0294420
  36.7320645  89.1208039  75.4007391  38.4099177  95.2861304  73.2437410
  38.6216073  95.9293064  72.5671791  38.3628926  94.4523621  72.7759340
  36.0125406  87.8979125  70.1473982  35.1509885  88.1960378  70.4390719
  36.0387841  88.1149524  69.2155014  32.8286976  96.4421315  66.5547787
  33.2925321  96.7209018  65.7652410  32.5643774  95.5404760  66.3720878
  29.7211057  95.9892797  69.4927551  30.2912414  96.4180065  68.8545035
  30.3119169  95.7075382  70.1911736  31.7655862  92.5644468  63.3637353
  32.4679905  93.0165511  63.8311279  31.4336490  91.9228287  63.9917246
  30.2136223  91.1556224  77.7388562  29.5834884  91.8372505  77.9723959
  30.1072311  91.0439306  76.7941700  25.5081196  90.8228020  68.6654486
  24.7180250  91.0785549  68.1894597  25.9992443  91.6376358  68.7706527
  39.5245005  98.1633260  71.4159767  40.3462449  97.7613447  71.1342449
  39.5207408  98.0601494  72.3675883  27.4595941  91.1872600  65.6237963
  26.6627104  91.2991294  66.1421459  27.2321533  91.5259252  64.7578853
  33.2901609  97.7117303  73.5720478  33.3546041  98.1737710  74.4078649
  32.5812533  97.0814668  73.7002787  23.7918899  91.0758511  71.0969477
  24.0426937  91.9605521  71.3627053  24.3278447  90.8963112  70.3244569
  47.6150998  94.5072008  67.7644738  46.8614707  93.9379406  67.6088743
  47.7498540  94.4734673  68.7115373  33.0049626  99.3785410  63.4399458
  32.8695301 100.2236946  63.8684306  33.5459439  99.5804688  62.6765392
  29.4916966  85.4576990  80.1013813  29.0983912  84.9043189  80.7761457
  30.3083106  85.7687569  80.4920331  26.4579024  96.8960848  64.0127383
  26.9703544  97.6904099  64.1632948  27.1101737  96.1987139  63.9460984
  28.2673908 100.0126605  66.0950136  28.4440537 100.9344569  65.9071120
  29.0630742  99.6985024  66.5244516  32.4084927  86.8734869  77.6934070
  33.1494640  87.4742023  77.6138532  32.6402850  86.1312507  77.1352112
  27.5526265  92.0591237  75.9712299  27.4379780  91.1576494  76.2719398
  26.6970783  92.3054933  75.6197116  34.6318103 100.0008977  77.5699800
  34.1881957  99.2145356  77.2520704  35.2935316 100.1888127  76.9043691
  29.3905224 101.5304779  72.0960478  29.9412649 101.4021842  71.3237472
  28.5516700 101.8299668  71.7455371  36.7299341 100.2811777  75.5981201
  36.7117816 101.1020658  75.1061470  37.6519261 100.1565852  75.8231342
  33.1872395  97.7955906  76.4404710  33.7200732  97.0344195  76.2104018
  32.6586476  97.5029558  77.1828864  36.3542090  82.9015972  71.9698351
  36.0106359  83.7917614  71.8937462  36.7221053  82.7117630  71.1067936
  24.4227941  95.2249503  64.7886953  25.2603163  95.6346511  64.5720661
  24.6006208  94.2848945  64.7587147  36.3192373  92.8924583  60.4770786
  35.8038996  93.6629188  60.7159174  36.0469681  92.2189720  61.1003848
  33.9039484  87.7374284  65.5356025  33.0481080  87.3481135  65.3561663
  34.3166435  87.8166245  64.6755810  35.4338630  85.2720627  69.9347585
  34.9303426  85.2350763  69.1215390  35.7269237  86.1813370  69.9944241
  31.6781516  85.3559357  68.9413766  32.5434513  85.1602166  68.5819656
  31.7459025  85.1269709  69.8683123  41.2926647  95.6456938  62.4123960
  40.5156090  95.3068098  61.9679122  41.9718128  95.6509561  61.7378925
  36.1078676  90.7651676  62.3030568  35.8028811  91.0797825  63.1540711
  37.0609118  90.8433095  62.3457901  34.5525108  96.9241899  63.9523522
  34.0246469  96.1894658  63.6396759  34.0512610  97.7016575  63.7063490
  39.5317954  95.1190919  69.0690568  38.8741628  95.8090181  69.1570697
  40.3358353  95.5087351  69.4124554  29.2843835  87.5861565  66.3130133
  29.8587587  87.3636747  65.5803326  29.8714818  87.6550260  67.0658734
  38.3423413  93.4735292  67.1194510  38.8555294  94.1065284  67.6216219
  38.9924636  92.8736488  66.7537870  29.6113422  89.6166026  60.3326018
  28.7750735  89.9540713  60.6535293  29.4718192  89.4815006  59.3953155
  31.5866503  84.4602814  65.0405203  30.9330915  84.1451831  64.4161817
  31.5446977  83.8378554  65.7665025  32.6977708  94.7422109  56.9558495
  31.7904770  94.5111363  57.1549644  33.1948740  93.9459728  57.1432476
  35.6045787 103.4519616  59.8755181  34.9307486 103.7551313  60.4840139
  35.9911609 104.2548697  59.5260638  34.8204243  90.9484748  69.3652850
  33.9026805  91.1699695  69.2074538  35.2364387  91.0231058  68.5064557
  35.6039291  92.3476163  64.4955530  36.3511110  92.8597560  64.1862652
  35.8730881  92.0260216  65.3559924  33.8765941  94.8434704  61.4782485
  32.9677161  94.5593737  61.5754954  33.9061025  95.2633783  60.6185792
  39.1085209  98.4541293  65.2473652  38.6547536  97.6132203  65.3038843
  38.4779175  99.0902692  65.5848432  38.0518128  89.3833280  66.4774320
  37.3140885  88.8710666  66.8084562  38.3044902  88.9433661  65.6657597
  37.5518148 100.2917790  66.1823470  37.8441122 100.8522847  65.4635836
  38.0616769 100.5846351  66.9376629  38.1529756  82.1609532  67.0716089
  38.4588632  81.3006895  66.7842004  38.8782360  82.7527152  66.8715083
  24.4454112  92.5640218  65.4597687  24.2478512  91.9709579  64.7348753
  23.8900776  92.2592428  66.1773626  32.4250835  92.4563325  67.5792280
  32.4799445  91.5037161  67.5034757  31.6142037  92.6122764  68.0633578
  33.5742029  96.3843448  58.8170563  33.1361459  95.6679307  58.3576201
  34.3152470  96.6119562  58.2555655  30.3643195  91.0740384  65.3382659
  29.5511061  91.3734555  65.7447851  30.8602189  90.6796073  66.0557141
  32.5151773 101.0698141  67.2716924  32.4727952 101.2958988  66.3425456
  33.4314472 100.8361516  67.4202725  35.9617407  91.5382209  74.1697553
  36.3166795  91.7653682  75.0292019  36.6089538  91.8700586  73.5474808
  41.6915144  94.6600645  64.8746882  41.5533043  94.8502241  63.9468071
  41.3351363  95.4220028  65.3314933  29.8557270  88.6458740  70.9543894
  30.4956649  88.5047499  70.2566857  29.0234801  88.3593253  70.5782496
  41.7184524  96.7277172  69.8858153  42.1521030  96.6352461  70.7341207
  42.4316104  96.7034672  69.2478169  30.6317574  97.9461170  67.0678886
  31.4258172  97.4511490  66.8661461  29.9209266  97.4179033  66.7046592
  35.4512418 100.3279266  71.4191254  35.5049441 100.8970202  72.1868970
  34.5827200 100.4981151  71.0545291  26.9400337  92.0904252  63.1438639
  26.0097926  92.0288708  63.3608601  27.0357809  91.5680205  62.3475280
  26.8585886  88.6159065  65.7316881  27.1192704  89.5304398  65.6226041
  27.6803059  88.1483507  65.8813493  28.3310812  90.0296822  72.9015705
  29.0033865  89.8214184  72.2528354  27.5040598  89.8318908  72.4620937
  42.5800073  96.7700872  72.4191039  42.7735963  97.6746683  72.6650314
  42.4800691  96.3108291  73.2529624  34.2336384  86.6558763  74.9181366
  33.5864299  87.3548713  74.8245842  35.0037399  87.0894907  75.2857614
  37.6415182  96.9207615  77.9931919  37.4900688  96.6918167  77.0762003
  37.6319861  97.8778217  78.0063264  34.4100518  94.4939528  72.9778186
  35.3392578  94.6450687  72.8047153  33.9891548  94.5823549  72.1226832
  33.2088850  98.5190192  70.7476723  33.0699936  98.1508977  71.6202662
  32.4203446  99.0337832  70.5760681  33.8037002 103.6199289  62.0902260
  33.9788758 103.1487332  62.9047883  33.1169790 104.2465055  62.3183521
  34.7594065  97.8971795  68.1365561  34.4243898  97.8572565  69.0323211
  34.2598011  97.2316511  67.6635971  28.7338309  93.3039425  73.6618142
  28.5958107  92.5719664  74.2629681  29.6443233  93.2148325  73.3802330
  37.6953257  95.2427829  58.4102621  37.0782427  94.5174657  58.3135674
  37.2269745  96.0037190  58.0669695  31.3620610  93.0159384  73.1501822
  32.0720228  92.3752577  73.1088440  31.3189918  93.2672279  74.0728003
  39.3507388  99.9526738  76.0708401  39.2919935  99.2685958  75.4038984
  39.7526907 100.6945728  75.6189027  30.0749544  90.0024602  74.9697461
  29.5386901  89.5515341  75.6219058  29.4866252  90.1370511  74.2267926
  29.4851803  89.4613254  57.5323925  28.6081269  89.3402054  57.1686172
  29.9609556  88.6699332  57.2802814  39.3524796  97.9166322  74.3022381
  38.4651574  97.5792243  74.4248780  39.9223347  97.1849353  74.5391146
  21.0053943  94.2490413  67.6265432  21.6924983  93.9352143  67.0386448
  20.8502071  95.1531778  67.3532684  25.8088665  89.1380610  72.0550456
  25.7246854  88.5306279  71.3200866  24.9871371  89.6289628  72.0559952
  32.8825949 102.5767774  71.2683624  32.8096121 103.3822745  71.7802929
  32.4403342 102.7759740  70.4431645  32.6715729 101.8139544  64.7786446
  31.8883251 102.3561224  64.8724670  33.3708474 102.3313524  65.1780687
  35.9812379  87.6234173  67.4220651  36.4781078  86.8704136  67.1021721
  35.2099360  87.6598490  66.8563860  43.8342136  93.3274539  69.0638943
  43.8232012  94.2099254  68.6932876  42.9659516  92.9746090  68.8693480
  35.3424633 102.4754608  73.4241783  36.0552605 103.1102073  73.3517684
  34.8514661 102.5718474  72.6081785  37.0642159  96.3805861  64.9959074
  36.1298438  96.5007323  64.8263779  37.2418828  95.4778327  64.7319084
  32.5647348  89.7651556  67.1492336  32.1945135  89.2122597  67.8373241
  33.0606440  89.1609690  66.5967336  40.4514711  92.2223180  65.5309109
  40.9175163  93.0551172  65.4569411  40.9022211  91.7568161  66.2354367
  30.3936546 100.2249051  74.2447354  31.0946006 100.8585534  74.3976748
  29.9231661 100.5663783  73.4842993  38.5190942  98.5667001  62.5295261
  38.7950786  98.4523596  63.4389135  37.6495441  98.1684486  62.4907434
  38.4231374  84.5903767  69.5700010  37.5094453  84.8207994  69.7382217
  38.8524475  84.6742211  70.4214042  38.1937832  92.7793659  72.0699904
  37.5409282  93.0269566  71.4152357  38.5718212  91.9657797  71.7362381
  35.1545006 102.8153352  66.1728074  35.3367400 101.9975008  66.6355827
  35.9777992 103.0321044  65.7352964  35.4887171 101.7421537  63.4343123
  36.0174938 101.2313992  62.8213285  35.7515391 101.4264067  64.2988656
  34.2425405  93.5213470  78.5565941  33.5666042  93.4207599  79.2268316
  35.0653039  93.3652684  79.0201938  25.9904264  99.7585406  71.1778456
  26.5757701  99.0129094  71.3106360  25.7929103 100.0689363  72.0615120
  28.8442919 102.7936654  66.1940899  28.1753295 103.2782782  65.7104939
  28.7055789 103.0405874  67.1084277  20.5821919  92.3291007  69.8982899
  20.6206018  91.7954597  70.6920018  20.0762212  91.8026212  69.2793877
  32.9848188 104.8280397  72.7923557  33.5366496 104.9912019  73.5572642
  33.3254381 105.4184835  72.1203582  27.9612681  87.1755547  73.3945442
  28.0254008  88.0370378  72.9822839  27.8979801  86.5629549  72.6617800
  27.4364954  89.2478680  77.0418476  28.0636993  88.8655757  77.6556000
  26.5792873  89.0292882  77.4074168  37.8359062  99.6541655  78.6472211
  38.3798966 100.2671613  78.1527166  37.2545907 100.2121233  79.1639224
  24.2130496  91.0555109  62.9736831  24.5083938  90.1465787  62.9203884
  23.3118532  91.0342848  62.6517833  36.1216575 102.7762373  69.7787239
  35.9967715 101.9752113  69.2698185  36.7795666 103.2708566  69.2901209
  27.7424743  89.1311105  68.9564379  27.0211329  89.7447073  68.8171853
  28.5317999  89.6668870  68.8781025  38.1851484 100.5771393  71.4066789
  37.2381819 100.4576744  71.3345116  38.5334257  99.6893891  71.4893051
  30.5451057  86.4665532  75.2305031  31.0685459  86.7127828  75.9931340
  30.3263390  87.2985567  74.8108168  25.9418338  88.7369206  63.0976156
  25.6131044  87.8566585  62.9151262  26.2957709  88.6816875  63.9852545
  35.1897917 100.3724109  67.6071141  35.0422879  99.4440817  67.7878712
  36.0151410 100.3944200  67.1228217  29.0560161  89.0242176  63.4651634
  29.3956234  89.5528098  62.7430242  29.5032282  89.3622582  64.2410200
  38.7932039 101.1952668  68.6936014  39.7178586 100.9895529  68.5560465
  38.6247342 100.9469069  69.6025356  31.7503602  87.4079227  72.9154702
  31.4100422  86.6087040  73.3175382  31.0442608  87.7080938  72.3431535
  32.4020074  84.4928539  71.3682025  33.2246143  84.0189018  71.2460915
  32.6458137  85.2719023  71.8680711  31.0428308  87.5216798  61.6644926
  31.7636671  87.8998051  61.1608643  30.4193613  88.2405675  61.7679904
  35.1859431  88.2261947  62.6003259  35.4023046  89.1086585  62.2992087
  34.7053498  87.8348160  61.8708901  29.9258653  91.1847660  69.1774003
  29.7803233  91.4987963  70.0698285  29.4483856  91.8032560  68.6244902
  31.7855036  88.1750208  69.2254893  31.7716604  87.2791301  68.8887191
  32.5027464  88.1820872  69.8593179  33.6381166  88.6087548  71.2708020
  33.3798944  89.5304619  71.2692351  33.1066207  88.2117983  71.9608484
  38.5827355 101.7138335  64.0498106  38.7564233 101.1484758  63.2971958
  39.0756246 102.5139230  63.8677596  24.4004315  93.7253004  72.1161664
  23.8557783  94.5012812  72.2481939  25.2783665  94.0723809  71.9580786
  31.1891931  87.0564588  64.4942463  31.3107843  86.1281235  64.6933351
  30.8993974  87.0703274  63.5820778  34.0583122  84.7419499  67.6309183
  34.0804819  84.8058832  66.6761162  34.4751181  83.9024007  67.8249689
  44.4366746  94.4774758  65.6688405  44.8797892  93.7282084  65.2707529
  43.5593256  94.4684895  65.2862137  39.5702527 101.0305100  61.1495004
  40.2653432 101.6511792  61.3682319  39.9125678 100.1800451  61.4247382
  25.1870337  92.8522901  75.0091821  24.4452073  93.0005536  75.5956452
  24.8663081  93.1131166  74.1458571  41.4693951  98.4804805  62.6782335
  41.9945275  98.8192078  61.9531655  41.3816303  97.5451821  62.4945469
  33.1313999 102.3938879  74.8072211  33.4401126 102.1488026  75.6794911
  33.9289481 102.5985517  74.3191082  33.1534611 104.5476789  67.0377588
  32.7139602 104.0553167  67.7310445  33.9042728 104.0049756  66.7969663
  25.6326950 100.7388329  67.0402216  26.4584970 100.4392101  66.6600860
  25.2821002  99.9695952  67.4892005  30.6008484 100.0914798  69.1099890
  29.9788493  99.4285503  68.8102117  31.2713350 100.1175930  68.4273537
  23.8335555  98.6574656  67.9991150  22.9967464  98.2296830  67.8175151
  23.8059201  98.8507099  68.9361941  30.6733011  88.5696586  78.7032396
  30.7221166  89.4458709  78.3210165  31.2155525  88.0273979  78.1304039
  41.1587857  99.1137709  77.9833533  40.3683400  99.0961848  77.4438032
  40.9221211  99.6526003  78.7382569  41.2785732  95.9630175  75.2966261
  41.3283737  95.7980183  76.2381784  41.1699655  95.0957434  74.9064142
  30.1621990  98.6418721  62.5858350  30.3110111  99.3254185  61.9325023
  30.9688434  98.6223811  63.1007806  38.5689494  91.9461103  76.6125568
  39.4699357  91.8067568  76.3209566  38.6437469  92.1115558  77.5523745
  32.9032299  89.3227958  75.4578754  32.0335609  89.6161524  75.1861343
  33.1391780  89.9068403  76.1786018  42.7803929  98.3827117  75.5408283
  42.4888737  98.7457097  76.3771744  42.1676060  97.6694125  75.3621615
  43.9799611  95.9479997  68.0610853  44.8146502  96.3869801  68.2248413
  44.1158740  95.4718650  67.2419099  41.0291117  93.5059731  74.0088341
  41.5045238  93.6987378  73.2007192  40.1056682  93.5618917  73.7631724
  27.9174623  94.6683899  63.5919419  27.6720665  93.7646229  63.7899629
  28.0870538  94.6701049  62.6498897  35.6071333  85.5407575  72.9744175
  36.1253277  86.2768602  72.6490663  35.2526466  85.8471568  73.8090934
  27.1870271  90.4012256  61.0905581  26.4939516  90.4756611  60.4345616
  26.9422023  89.6372600  61.6127097  35.8583927  81.9607858  68.4945071
  36.1385681  81.2931047  69.1205498  36.6434534  82.1536953  67.9819735
  33.6617396 101.1366851  60.0570098  33.0891363 101.7557039  59.6040569
  34.2350190 101.6866213  60.5910020  39.7292786  90.3825492  72.2416646
  40.6810209  90.4823589  72.2628870  39.5596236  89.5903760  72.7514731
  37.7507165  87.4681075  72.4276047  37.1557097  87.7486088  71.7322536
  37.4656862  87.9574976  73.1992788  36.8814656 101.4204002  61.1878680
  37.8145329 101.3549563  61.3911555  36.7937869 102.2560268  60.7293212
  39.5102672 100.7369872  58.1482627  39.4316304 100.4029736  59.0418385
  40.3312339 101.2291640  58.1474100  42.2080864  93.6031611  71.3558946
  42.1757184  92.6647612  71.5418630  42.8181487  93.6815648  70.6224771
  34.0464194  92.4727664  57.3986150  34.9923299  92.3433872  57.4674568
  33.6678439  91.7342326  57.8755578  42.3575352  90.3942655  71.4017229
  41.8414401  89.6101111  71.2147158  43.2415301  90.0661371  71.5663749
  40.0186079  84.1383670  67.3613042  39.8210900  83.8298758  68.2456374
  40.6285785  84.8645309  67.4910972  48.0257413  94.6647618  70.4964983
  48.7560802  94.4032906  71.0572686  47.4164359  93.9276340  70.5367051
  46.1072711  92.8055481  71.0939434  45.3805874  92.6711446  70.4855926
  45.6919997  93.1132309  71.8996152  33.9302887  96.5245410  78.8586807
  34.8505896  96.7024009  79.0526854  33.8952470  95.5801456  78.7066506
  32.2307112  90.3977641  57.3341035  31.3238567  90.1010753  57.4103749
  32.5083093  90.1007459  56.4675322  23.1485052  91.7184004  67.7840082
  22.8287836  90.8649312  67.4914456  22.6018480  91.9332582  68.5398049
  26.9264960  94.4346445  71.5009588  27.1450969  95.3663553  71.5197622
  27.3390733  94.0754419  72.2864392  33.8469177  84.9414530  63.4885277
  33.0369906  84.5961615  63.8640523  34.5353594  84.6322074  64.0772888
  35.7759726  84.0192577  65.1109573  36.3290764  84.4388031  65.7699596
  36.0129812  83.0928325  65.1532529  31.7992825  90.0079651  80.8912337
  31.6989552  90.9574008  80.8224428  31.5814367  89.6797890  80.0188407
  31.0005896  87.2564576  57.4753014  31.8625060  87.5819474  57.7348832
  31.1856240  86.4696072  56.9626080  23.0173312  95.3386916  69.7533203
  22.3236783  94.9240868  69.2403158  23.7646303  95.3807452  69.1566622
  39.1538533  86.1293102  64.6188237  38.5737202  86.7877906  64.2366290
  38.8874465  85.3070447  64.2075655  37.6042099  85.5298160  66.8209558
  38.1041877  85.6414695  66.0123877  38.2477707  85.2259213  67.4610366
  31.6624095  93.4376790  79.7077399  31.1791177  94.2377150  79.9141288
  31.7485034  93.4484735  78.7544843  24.9310055  95.2705169  67.6299218
  24.9080743  95.3692857  66.6781101  25.2410691  96.1170320  67.9516384
  27.5897432  97.3281324  71.7445833  28.5440686  97.2965267  71.6775764
  27.3909956  96.8671948  72.5596058  28.1796815  95.8982440  74.3116630
  28.9989703  96.3926519  74.3351468  28.4533622  94.9814409  74.2834198
  37.9363411  88.2893193  63.6744586  37.0489266  88.5742843  63.4564780
  38.3517400  88.1286956  62.8271863  41.2877947  88.3139714  67.3898925
  42.0638337  88.8036166  67.6623542  40.5626081  88.7397768  67.8470794
  43.7250505  89.0267333  68.4472866  44.3194996  88.7863069  67.7366174
  43.7977089  88.3074463  69.0746402  37.0806624  98.0537867  57.7692606
  37.7842474  98.2587870  58.3850261  36.3569273  98.6214629  58.0341689
  37.9104434  93.8047729  63.8894876  37.8539636  94.2616280  63.0502508
  38.4632777  93.0438413  63.7117719  41.7209240  89.5937460  64.7144995
  41.4646175  89.1934096  65.5453203  41.0962108  90.3081254  64.5895135
  46.0321578  92.3333534  67.2216287  45.4721136  92.4026723  67.9947849
  45.4265082  92.1574518  66.5015783  38.9893322  98.4920397  59.8191066
  39.8238926  98.0601595  59.6368541  38.8277665  98.3202410  60.7467960
  38.6439214  94.9952510  61.1847405  38.5888018  94.8296781  60.2435849
  38.0185269  95.7028543  61.3409595  23.4331729  90.2320574  75.0108827
  24.0790592  89.7219528  75.4996052  23.2248880  90.9689256  75.5852253
  35.9585121  97.3001422  80.5100968  36.8276281  97.4742074  80.1487603
  35.4791872  98.1195839  80.3876697  31.9535339  84.4960619  60.7632723
  31.9414009  85.4402459  60.9200994  32.8458761  84.3130764  60.4692185
  30.1271301 104.4198523  72.1890401  31.0298548 104.4522133  72.5056896
  29.9008671 103.4898974  72.2036737  31.8824903 103.1729509  68.8500480
  30.9320534 103.1731371  68.7364852  32.1857389 102.4262244  68.3336515
  35.7687459  81.0903396  65.0178660  35.0019854  80.5361882  65.1635343
  36.1798164  81.1625264  65.8792812  27.7729220  87.3788191  79.1083842
  28.6360681  87.0224996  79.3187166  27.1994630  87.0402086  79.7959246
  47.6177597 109.0090048  69.9146243  48.2556007 108.8896795  69.2109583
  47.4998440 109.9570892  69.9734195  44.4267303 108.9617476  69.8507767
  44.0885814 108.8458540  68.9628302  45.2957071 108.5608641  69.8308773
  42.1275582 107.7305723  59.1824707  42.3801103 107.2087244  58.4208170
  41.1900141 107.5671869  59.2851391  47.1718865 106.7341502  66.9899451
  47.9581954 106.3160925  66.6389868  47.4357569 107.6387594  67.1581099
  52.5727292 106.6716735  67.8932429  53.3052464 106.1015952  68.1270259
  51.8166648 106.2838335  68.3338935  44.1903412 109.0943976  65.0895772
  43.8261619 108.5674597  65.8008693  45.0470528 108.7042445  64.9162257
  50.0952713 100.3838309  72.3527038  49.7636037 101.2533720  72.1288253
  49.4998326 100.0674593  73.0321068  43.8308899 104.1233876  60.0857120
  43.9983301 104.9914112  60.4527591  43.6406068 104.2861158  59.1618409
  49.9881376 105.1033395  69.4320388  49.0798253 105.0348803  69.1379149
  49.9368972 105.5805340  70.2602213  43.8098120 106.5791533  61.0703787
  43.6897745 107.0248584  61.9089267  43.1150708 106.9276851  60.5117325
  44.0622242 106.5223041  77.3755285  43.2855576 107.0816961  77.3658150
  44.7012805 107.0079824  77.8970155  51.8543022 103.3049833  71.2098262
  51.2117403 103.5982367  70.5638056  51.3497951 103.1902754  72.0151458
  49.5083186 107.0513007  61.8984121  50.4201042 107.2840393  61.7231818
  48.9992833 107.6350051  61.3359200  44.1455024 106.4110241  72.9078970
  44.9916219 106.8349655  73.0513619  44.0853661 105.7543866  73.6017534
  47.2954469 104.0714610  74.5660144  47.0515401 104.8256670  74.0294420
  47.5714400 104.4499957  75.4007391  49.2492932 110.6153222  73.2437410
  49.4609827 111.2584982  72.5671791  49.2022680 109.7815538  72.7759340
  46.8519161 103.2271043  70.1473982  45.9903640 103.5252296  70.4390719
  46.8781595 103.4441441  69.2155014  42.6049616 107.8936386  63.3637353
  43.3073660 108.3457429  63.8311279  42.2730245 107.2520204  63.9917246
  41.0529978 106.4848142  77.7388562  40.4228638 107.1664423  77.9723959
  40.9466066 106.3731224  76.7941700  36.3474950 106.1519938  68.6654486
  35.5574004 106.4077467  68.1894597  36.8386198 106.9668276  68.7706527
  38.2989696 106.5164517  65.6237963  37.5020859 106.6283212  66.1421459
  38.0715288 106.8551170  64.7578853  58.4544753 109.8363926  67.7644738
  57.7008461 109.2671324  67.6088743  58.5892294 109.8026590  68.7115373
  40.3310721 100.7868908  80.1013813  39.9377666 100.2335107  80.7761457
  41.1476861 101.0979486  80.4920331  43.2478682 102.2026787  77.6934070
  43.9888395 102.8033940  77.6138532  43.4796604 101.4604425  77.1352112
  47.1935844  98.2307890  71.9698351  46.8500114  99.1209532  71.8937462
  47.5614807  98.0409548  71.1067936  47.1586127 108.2216501  60.4770786
  46.6432751 108.9921106  60.7159174  46.8863436 107.5481637  61.1003848
  44.7433238 103.0666202  65.5356025  43.8874835 102.6773052  65.3561663
  45.1560190 103.1458163  64.6755810  46.2732385 100.6012545  69.9347585
  45.7697180 100.5642680  69.1215390  46.5662992 101.5105288  69.9944241
  42.5175271 100.6851275  68.9413766  43.3828268 100.4894084  68.5819656
  42.5852780 100.4561627  69.8683123  52.1320401 110.9748856  62.4123960
  51.3549844 110.6360015  61.9679122  52.8111882 110.9801479  61.7378925
  46.9472430 106.0943593  62.3030568  46.6422566 106.4089742  63.1540711
  47.9002872 106.1725013  62.3457901  50.3711708 110.4482837  69.0690568
  49.7135383 111.1382098  69.1570697  51.1752107 110.8379269  69.4124554
  40.1237590 102.9153483  66.3130133  40.6981342 102.6928664  65.5803326
  40.7108572 102.9842177  67.0658734  49.1817167 108.8027210  67.1194510
  49.6949049 109.4357202  67.6216219  49.8318391 108.2028405  66.7537870
  40.4507177 104.9457944  60.3326018  39.6144489 105.2832630  60.6535293
  40.3111947 104.8106924  59.3953155  42.4260258  99.7894732  65.0405203
  41.7724670  99.4743749  64.4161817  42.3840732  99.1670472  65.7665025
  45.6597998 106.2776665  69.3652850  44.7420559 106.4991612  69.2074538
  46.0758142 106.3522976  68.5064557  46.4433046 107.6768081  64.4955530
  47.1904865 108.1889478  64.1862652  46.7124635 107.3552134  65.3559924
  48.8911883 104.7125197  66.4774320  48.1534640 104.2002583  66.8084562
  49.1438656 104.2725579  65.6657597  48.9923510  97.4901449  67.0716089
  49.2982387  96.6298813  66.7842004  49.7176115  98.0819069  66.8715083
  43.2644590 107.7855242  67.5792280  43.3193200 106.8329079  67.5034757
  42.4535792 107.9414681  68.0633578  41.2036950 106.4032302  65.3382659
  40.3904815 106.7026473  65.7447851  41.6995944 106.0087991  66.0557141
  46.8011161 106.8674126  74.1697553  47.1560549 107.0945600  75.0292019
  47.4483293 107.1992503  73.5474808  52.5308898 109.9892562  64.8746882
  52.3926797 110.1794158  63.9468071  52.1745117 110.7511945  65.3314933
  40.6951025 103.9750658  70.9543894  41.3350404 103.8339417  70.2566857
  39.8628555 103.6885171  70.5782496  52.5578278 112.0569089  69.8858153
  52.9914785 111.9644378  70.7341207  53.2709859 112.0326590  69.2478169
  37.6979641 103.9450983  65.7316881  37.9586458 104.8596316  65.6226041
  38.5196813 103.4775425  65.8813493  39.1704566 105.3588740  72.9015705
  39.8427620 105.1506102  72.2528354  38.3434353 105.1610826  72.4620937
  53.4193828 112.0992790  72.4191039  53.6129718 113.0038601  72.6650314
  53.3194446 111.6400209  73.2529624  45.0730138 101.9850681  74.9181366
  44.4258053 102.6840630  74.8245842  45.8431154 102.4186825  75.2857614
  45.2494273 109.8231446  72.9778186  46.1786333 109.9742605  72.8047153
  44.8285303 109.9115466  72.1226832  42.2014364 108.3451302  73.1501822
  42.9113983 107.7044494  73.1088440  42.1583672 108.5964197  74.0728003
  40.9143298 105.3316520  74.9697461  40.3780655 104.8807258  75.6219058
  40.3260007 105.4662429  74.2267926  40.3245557 104.7905171  57.5323925
  39.4475023 104.6693972  57.1686172  40.8003310 103.9991250  57.2802814
  36.6482419 104.4672528  72.0550456  36.5640608 103.8598197  71.3200866
  35.8265126 104.9581546  72.0559952  46.8206133 102.9526091  67.4220651
  47.3174833 102.1996053  67.1021721  46.0493115 102.9890408  66.8563860
  54.6735891 108.6566457  69.0638943  54.6625767 109.5391172  68.6932876
  53.8053270 108.3038007  68.8693480  43.4041102 105.0943474  67.1492336
  43.0338890 104.5414514  67.8373241  43.9000194 104.4901608  66.5967336
  51.2908465 107.5515098  65.5309109  51.7568918 108.3843089  65.4569411
  51.7415966 107.0860079  66.2354367  49.2625128  99.9195685  69.5700010
  48.3488208 100.1499911  69.7382217  49.6918230 100.0034129  70.4214042
  49.0331587 108.1085577  72.0699904  48.3803037 108.3561484  71.4152357
  49.4111966 107.2949715  71.7362381  45.0819160 108.8505388  78.5565941
  44.4059797 108.7499517  79.2268316  45.9046793 108.6944601  79.0201938
  38.8006436 102.5047465  73.3945442  38.8647762 103.3662296  72.9822839
  38.7373556 101.8921467  72.6617800  38.2758708 104.5770597  77.0418476
  38.9030747 104.1947675  77.6556000  37.4186627 104.3584799  77.4074168
  38.5818498 104.4603023  68.9564379  37.8605084 105.0738991  68.8171853
  39.3711754 104.9960788  68.8781025  41.3844812 101.7957450  75.2305031
  41.9079213 102.0419746  75.9931340  41.1657145 102.6277484  74.8108168
  36.7812093 104.0661124  63.0976156  36.4524799 103.1858503  62.9151262
  37.1351463 104.0108793  63.9852545  39.8953916 104.3534094  63.4651634
  40.2349988 104.8820015  62.7430242  40.3426036 104.6914500  64.2410200
  42.5897357 102.7371145  72.9154702  42.2494177 101.9378958  73.3175382
  41.8836363 103.0372856  72.3431535  43.2413828  99.8220457  71.3682025
  44.0639898  99.3480935  71.2460915  43.4851892 100.6010941  71.8680711
  41.8822063 102.8508716  61.6644926  42.6030425 103.2289968  61.1608643
  41.2587367 103.5697592  61.7679904  46.0253186 103.5553865  62.6003259
  46.2416800 104.4378502  62.2992087  45.5447253 103.1640078  61.8708901
  40.7652407 106.5139578  69.1774003  40.6196988 106.8279881  70.0698285
  40.2877611 107.1324478  68.6244902  42.6248790 103.5042126  69.2254893
  42.6110359 102.6083219  68.8887191  43.3421218 103.5112789  69.8593179
  44.4774921 103.9379466  71.2708020  44.2192699 104.8596537  71.2692351
  43.9459961 103.5409900  71.9608484  42.0285686 102.3856506  64.4942463
  42.1501597 101.4573152  64.6933351  41.7387728 102.3995192  63.5820778
  44.8976876 100.0711416  67.6309183  44.9198573 100.1350750  66.6761162
  45.3144935  99.2315925  67.8249689  55.2760501 109.8066676  65.6688405
  55.7191647 109.0574001  65.2707529  54.3987011 109.7976812  65.2862137
  41.5126765 103.8988503  78.7032396  41.5614921 104.7750626  78.3210165
  42.0549280 103.3565896  78.1304039  52.1179486 111.2922093  75.2966261
  52.1677491 111.1272100  76.2381784  52.0093410 110.4249352  74.9064142
  49.4083249 107.2753021  76.6125568  50.3093111 107.1359486  76.3209566
  49.4831223 107.4407476  77.5523745  43.7426054 104.6519876  75.4578754
  42.8729363 104.9453442  75.1861343  43.9785534 105.2360321  76.1786018
  54.8193365 111.2771914  68.0610853  55.6540257 111.7161718  68.2248413
  54.9552494 110.8010568  67.2419099  51.8684871 108.8351649  74.0088341
  52.3438993 109.0279295  73.2007192  50.9450437 108.8910835  73.7631724
  46.4465088 100.8699493  72.9744175  46.9647032 101.6060520  72.6490663
  46.0920221 101.1763486  73.8090934  38.0264025 105.7304174  61.0905581
  37.3333270 105.8048529  60.4345616  37.7815777 104.9664518  61.6127097
  46.6977682  97.2899775  68.4945071  46.9779436  96.6222964  69.1205498
  47.4828289  97.4828871  67.9819735  50.5686540 105.7117409  72.2416646
  51.5203963 105.8115507  72.2628870  50.3989991 104.9195678  72.7514731
  48.5900920 102.7972992  72.4276047  47.9950852 103.0778005  71.7322536
  48.3050616 103.2866893  73.1992788  53.0474618 108.9323529  71.3558946
  53.0150938 107.9939530  71.5418630  53.6575242 109.0107566  70.6224771
  44.8857949 107.8019582  57.3986150  45.8317054 107.6725790  57.4674568
  44.5072194 107.0634244  57.8755578  53.1969107 105.7234572  71.4017229
  52.6808155 104.9393029  71.2147158  54.0809055 105.3953289  71.5663749
  50.8579833  99.4675588  67.3613042  50.6604655  99.1590676  68.2456374
  51.4679539 100.1937227  67.4910972  58.8651168 109.9939536  70.4964983
  59.5954556 109.7324824  71.0572686  58.2558113 109.2568258  70.5367051
  56.9466465 108.1347398  71.0939434  56.2199629 108.0003363  70.4855926
  56.5313752 108.4424227  71.8996152  43.0700866 105.7269558  57.3341035
  42.1632321 105.4302671  57.4103749  43.3476847 105.4299376  56.4675322
  44.6862932 100.2706448  63.4885277  43.8763660  99.9253533  63.8640523
  45.3747349  99.9613992  64.0772888  46.6153480  99.3484495  65.1109573
  47.1684519  99.7679948  65.7699596  46.8523566  98.4220243  65.1532529
  42.6386579 105.3371568  80.8912337  42.5383306 106.2865925  80.8224428
  42.4208121 105.0089807  80.0188407  41.8399651 102.5856494  57.4753014
  42.7018815 102.9111392  57.7348832  42.0249995 101.7987989  56.9626080
  49.9932287 101.4585020  64.6188237  49.4130956 102.1169824  64.2366290
  49.7268220 100.6362365  64.2075655  48.4435854 100.8590078  66.8209558
  48.9435632 100.9706612  66.0123877  49.0871461 100.5551131  67.4610366
  48.7757165 103.6185110  63.6744586  47.8883020 103.9034761  63.4564780
  49.1911154 103.4578874  62.8271863  52.1271701 103.6431631  67.3898925
  52.9032091 104.1328084  67.6623542  51.4019836 104.0689686  67.8470794
  54.5644260 104.3559251  68.4472866  55.1588751 104.1154987  67.7366174
  54.6370844 103.6366381  69.0746402  48.7498189 109.1339646  63.8894876
  48.6933390 109.5908198  63.0502508  49.3026531 108.3730331  63.7117719
  52.5602995 104.9229378  64.7144995  52.3039929 104.5226014  65.5453203
  51.9355863 105.6373172  64.5895135  56.8715333 107.6625451  67.2216287
  56.3114891 107.7318641  67.9947849  56.2658836 107.4866436  66.5015783
  49.4832968 110.3244428  61.1847405  49.4281772 110.1588699  60.2435849
  48.8579024 111.0320460  61.3409595  42.7929094  99.8252537  60.7632723
  42.7807764 100.7694376  60.9200994  43.6852516  99.6422682  60.4692185
  46.6081213  96.4195313  65.0178660  45.8413609  95.8653800  65.1635343
  47.0191918  96.4917182  65.8792812  38.6122974 102.7080109  79.1083842
  39.4754436 102.3516914  79.3187166  38.0388385 102.3694004  79.7959246
  58.0329599 113.5599808  71.9698351  57.6893868 114.4501449  71.8937462
  58.4008562 113.3701465  71.1067936  59.8317265 112.8193367  67.0716089
  60.1376141 111.9590730  66.7842004  60.5569869 113.4110987  66.8715083
  57.5371436 112.6191693  68.4945071  57.8173190 111.9514882  69.1205498
  58.3222043 112.8120789  67.9819735  61.6973588 114.7967506  67.3613042
  61.4998409 114.4882594  68.2456374  62.3073294 115.5229145  67.4910972
  57.4474968 111.7487231  65.0178660  56.6807363 111.1945718  65.1635343
  57.8585673 111.8209100  65.8792812   4.2602580  24.6984500  56.6391549
   4.8980990  24.5791247  55.9354889   4.1423423  25.6465344  56.6979501
   1.0692286  24.6511928  56.5753074   0.7310798  24.5352992  55.6873609
   1.9382054  24.2503093  56.5554080   1.5512069  25.8046779  62.5339279
   1.5400710  25.4099578  61.6619783   1.7132709  25.0712852  63.1273051
   2.5078661  30.1718372  47.8764430   1.8566640  30.7572452  47.4898443
   3.3023023  30.7024567  47.9359467   3.8143848  22.4235953  53.7144757
   4.6006938  22.0055377  53.3635174   4.0782553  23.3282046  53.8826406
   3.9853926  27.8608804  48.4133414   3.3499759  27.9343430  49.1254319
   3.6551332  28.4502403  47.7352493   9.2152276  22.3611187  54.6177736
   9.9477448  21.7910403  54.8515565   8.4591631  21.9732787  55.0584241
   6.7377696  16.0732761  59.0772344   6.4061021  16.9428172  58.8533559
   6.1423309  15.7569045  59.7566375   3.2309215  28.2745307  58.4768257
   2.9309939  29.1770346  58.3684064   2.8860275  28.0077490  59.3289410
   6.6306359  20.7927847  56.1565694   5.7223237  20.7243255  55.8624455
   6.5793955  21.2699792  56.9847520   8.4968006  18.9944285  57.9343568
   7.8542386  19.2876818  57.2883363   7.9922934  18.8797206  58.7396765
   6.1508169  22.7407458  48.6229428   7.0626025  22.9734845  48.4477125
   5.6417816  23.3244503  48.0604506   4.4348937  27.1632086  62.2590720
   4.8432293  26.7214497  61.5145352   3.7126198  26.5884714  62.5124913
   0.7880007  22.1004693  59.6324277   1.6341202  22.5244107  59.7758926
   0.7278645  21.4438317  60.3262840   4.7577752  27.7233277  56.0143009
   4.1286614  27.8878991  55.3119077   4.3703414  28.1374886  56.7853973
   8.6366984  28.6587715  53.3687373   7.9518022  29.0386616  52.8184406
   8.7210833  29.2683041  54.1019321   3.9379452  19.7609061  61.2905451
   3.6940384  20.5151122  60.7539726   4.2139383  20.1394409  62.1252698
   5.8917915  26.3047674  59.9682716   6.1034810  26.9479434  59.2917097
   5.8447663  25.4709990  59.5004646   3.4944144  18.9165494  56.8719288
   2.6328623  19.2146748  57.1636026   3.5206579  19.1335893  55.9400321
   7.0063743  29.1819629  58.1405074   7.8281187  28.7799817  57.8587755
   7.0026146  29.0787863  59.0921189  15.0969736  25.5258378  54.4890045
  14.3433445  24.9565776  54.3334050  15.2317277  25.4921042  55.4360680
   2.1136841  31.0195347  64.2945107   1.6700695  30.2331725  63.9766011
   2.7754054  31.2074497  63.6288997   4.2118079  31.2998146  62.3226508
   4.1936554  32.1207027  61.8306777   5.1337999  31.1752222  62.5476649
   3.8011110  23.9110953  47.2016093   3.2857734  24.6815558  47.4404480
   3.5288419  23.2376089  47.8249154   1.3858222  18.7560654  52.2601331
   0.5299818  18.3667504  52.0806970   1.7985173  18.8352615  51.4001117
   2.9157368  16.2906997  56.6592891   2.4122164  16.2537132  55.8460696
   3.2087975  17.1999740  56.7189548   8.7745385  26.6643308  49.1369267
   7.9974827  26.3254467  48.6924429   9.4536866  26.6695931  48.4624232
   3.5897414  21.7838045  49.0275874   3.2847549  22.0984194  49.8786017
   4.5427856  21.8619465  49.0703207   2.0343845  27.9428268  50.6768828
   1.5065207  27.2081028  50.3642066   1.5331348  28.7202945  50.4308797
   7.0136692  26.1377289  55.7935875   6.3560366  26.8276550  55.8816003
   7.8177091  26.5273721  56.1369861   5.8242150  24.4921662  53.8439816
   6.3374032  25.1251653  54.3461526   6.4743374  23.8922857  53.4783176
   3.0864525  34.4705986  46.6000487   2.4126223  34.7737683  47.2085445
   3.4730347  35.2735066  46.2505944   2.3022981  21.9671117  56.0898157
   1.3845543  22.1886064  55.9319845   2.7183125  22.0417428  55.2309864
   3.0858029  23.3662533  51.2200837   3.8329848  23.8783930  50.9107959
   3.3549618  23.0446586  52.0805231   6.5903947  29.4727663  51.9718959
   6.1366274  28.6318573  52.0284149   5.9597913  30.1089061  52.3093739
   5.5336866  20.4019649  53.2019626   4.7959623  19.8897035  53.5329869
   5.7863640  19.9620031  52.3902903   5.0336886  31.3104160  52.9068777
   5.3259860  31.8709217  52.1881143   5.5435506  31.6032721  53.6621936
   1.0560767  27.4029817  45.5415870   0.6180197  26.6865676  45.0821507
   1.7971208  27.6305932  44.9800961   3.4436145  22.5568578  60.8942859
   3.7985532  22.7840052  61.7537325   4.0908276  22.8886955  60.2720115
   9.1733882  25.6787014  51.5992188   9.0351780  25.8688610  50.6713378
   8.8170101  26.4406397  52.0560240   9.2003261  27.7463541  56.6103460
   9.6339768  27.6538830  57.4586514   9.9134842  27.7221042  55.9723476
   2.9331156  31.3465635  58.1436561   2.9868178  31.9156572  58.9114276
   2.0645938  31.5167520  57.7790598  10.0618811  27.7887242  59.1436345
  10.2554701  28.6933052  59.3895620   9.9619429  27.3294661  59.9774930
   1.7155122  17.6745132  61.6426673   1.0683037  18.3735082  61.5491149
   2.4856137  18.1081276  62.0102921   5.1233920  27.9393985  64.7177226
   4.9719426  27.7104536  63.8007310   5.1138599  28.8964586  64.7308571
   1.8919256  25.5125897  59.7023492   2.8211316  25.6637057  59.5292460
   1.4710286  25.6009918  58.8472139   1.2855740  34.6385658  48.8147567
   1.4607495  34.1673701  49.6293189   0.5988528  35.2651424  49.0428827
   2.2412803  28.9158165  54.8610868   1.9062635  28.8758934  55.7568518
   1.7416749  28.2502880  54.3881278   5.1771995  26.2614199  45.1347927
   4.5601165  25.5361027  45.0380980   4.7088483  27.0223559  44.7915002
   6.8326126  30.9713107  62.7953708   6.7738672  30.2872327  62.1284291
   7.2345645  31.7132097  62.3434334   6.8343533  28.9352691  61.0267688
   5.9470312  28.5978613  61.1494086   7.4042085  28.2035722  61.2636453
   3.4631117  18.6420543  54.1465958   3.9599816  17.8890505  53.8267028
   2.6918098  18.6784860  53.5809167  11.3160874  24.3460909  55.7884249
  11.3050750  25.2285624  55.4178182  10.4478253  23.9932459  55.5938786
   2.8243370  33.4940978  60.1487089   3.5371343  34.1288442  60.0762991
   2.3333399  33.5904844  59.3327091   4.5460897  27.3992230  51.7204381
   3.6117176  27.5193693  51.5509085   4.7237566  26.4964697  51.4564391
   7.9333449  23.2409549  52.2554415   8.3993901  24.0737541  52.1814718
   8.3840949  22.7754531  52.9599674   6.0009680  29.5853371  49.2540567
   6.2769524  29.4709965  50.1634441   5.1314178  29.1870856  49.2152740
   5.9050111  15.6090136  56.2945317   4.9913191  15.8394363  56.4627523
   6.3343213  15.6928581  57.1459349   5.6756570  23.7980028  58.7945211
   5.0228020  24.0455936  58.1397663   6.0536950  22.9844167  58.4607688
   2.6363744  33.8339722  52.8973381   2.8186138  33.0161378  53.3601133
   3.4596730  34.0507414  52.4598271   2.9705909  32.7607907  50.1588429
   3.4993676  32.2500361  49.5458591   3.2334129  32.4450437  51.0233962
   1.7244143  24.5399840  65.2811248   1.0484780  24.4393969  65.9513623
   2.5471777  24.3839053  65.7447245   5.3177800  30.6728024  65.3717518
   5.8617704  31.2857983  64.8772473   4.7364645  31.2307603  65.8884531
   3.6035313  33.7948742  56.5032546   3.4786452  32.9938482  55.9943491
   4.2614404  34.2894936  56.0146516   5.6670221  31.5957763  58.1312096
   4.7200557  31.4763114  58.0590423   6.0152995  30.7080261  58.2138357
   2.6716655  31.3910479  54.3316448   2.5241617  30.4627186  54.5124018
   3.4970148  31.4130569  53.8473523   6.2750777  32.2139038  55.4181321
   7.1997324  32.0081899  55.2805772   6.1066080  31.9655439  56.3270662
   2.6678169  19.2448316  49.3248565   2.8841783  20.1272954  49.0237394
   2.1872236  18.8534530  48.5954207   1.1199904  19.6273918  57.9953327
   0.8617682  20.5490988  57.9937657   0.5884944  19.2304352  58.6853791
   6.0646093  32.7324705  50.7743412   6.2382970  32.1671127  50.0217265
   6.5574984  33.5325600  50.5922902  11.9185484  25.4961128  52.3933712
  12.3616630  24.7468453  51.9952835  11.0411994  25.4871264  52.0107444
   7.0521265  32.0491469  47.8740311   7.7472170  32.6698162  48.0927625
   7.3944415  31.1986821  48.1492688   8.9512688  29.4991175  49.4027641
   9.4764012  29.8378448  48.6776961   8.8635041  28.5638190  49.2190776
   0.6132737  33.4125249  61.5317518   0.9219864  33.1674395  62.4040218
   1.4108219  33.6171887  61.0436388   8.6406594  30.1324079  64.7078839
   7.8502138  30.1148217  64.1683339   8.4039949  30.6712372  65.4627876
   8.7604470  26.9816545  62.0211568   8.8102474  26.8166552  62.9627091
   8.6518393  26.1143804  61.6309449   6.0508232  22.9647473  63.3370875
   6.9518095  22.8253938  63.0454872   6.1256206  23.1301928  64.2769052
  10.2622666  29.4013486  62.2653589   9.9707475  29.7643467  63.1017050
   9.6494798  28.6880495  62.0866921  11.4618349  26.9666366  54.7856160
  12.2965240  27.4056170  54.9493720  11.5977477  26.4905019  53.9664405
   8.5109855  24.5246101  60.7333647   8.9863976  24.7173747  59.9252499
   7.5875420  24.5805287  60.4877031   3.0890071  16.5593945  59.6989481
   3.6072015  17.2954972  59.3735970   2.7345204  16.8657938  60.5336240
   1.1436134  32.1553221  46.7815404   0.5710101  32.7743408  46.3285876
   1.7168927  32.7052583  47.3155326   7.2111524  21.4011861  58.9661953
   8.1628946  21.5009959  58.9874177   7.0414974  20.6090130  59.4760037
   5.2325903  18.4867444  59.1521354   4.6375835  18.7672457  58.4567843
   4.9475600  18.9761345  59.9238095   4.3633394  32.4390371  47.9123986
   5.2964067  32.3735933  48.1156862   4.2756606  33.2746638  47.4538519
   6.9921410  31.7556242  44.8727934   6.9135042  31.4216105  45.7663692
   7.8131077  32.2478009  44.8719406   9.6899601  24.6217981  58.0804253
   9.6575921  23.6833982  58.2663936  10.3000225  24.7002018  57.3470078
   1.5282932  23.4914034  44.1231457   2.4742037  23.3620242  44.1919875
   1.1497177  22.7528696  44.6000885   9.8394090  21.4129024  58.1262536
   9.3233138  20.6287481  57.9392465  10.7234038  21.0847741  58.2909055
   7.5004817  15.1570040  54.0858349   7.3029638  14.8485128  54.9701680
   8.1104522  15.8831679  54.2156278  15.5076151  25.6833988  57.2210289
  16.2379540  25.4219276  57.7817993  14.8983097  24.9462710  57.2612357
  13.5891448  23.8241850  57.8184741  12.8624612  23.6897815  57.2101232
  13.1738735  24.1318679  58.6241459   1.4121625  27.5431780  65.5832114
   2.3324634  27.7210379  65.7772160   1.3771208  26.5987825  65.4311813
   6.6357270  17.1479472  51.3433544   6.0555940  17.8064276  50.9611597
   6.3693203  16.3256816  50.9320962   5.0860837  16.5484530  53.5454864
   5.5860615  16.6601064  52.7369183   5.7296445  16.2445582  54.1855673
   5.4182148  19.3079562  50.3989892   4.5308004  19.5929213  50.1810087
   5.8336138  19.1473326  49.5517169   8.7696685  19.3326083  54.1144232
   9.5457075  19.8222536  54.3868848   8.0444819  19.7584137  54.5716101
  11.2069243  20.0453702  55.1718172  11.8013734  19.8049438  54.4611480
  11.2795827  19.3260833  55.7991709   4.5625362  29.0724237  44.4937912
   5.2661212  29.2774239  45.1095568   3.8388011  29.6400999  44.7586996
   5.3923172  24.8234098  50.6140183   5.3358374  25.2802650  49.7747815
   5.9451515  24.0624783  50.4363025   9.2027978  20.6123830  51.4390302
   8.9464912  20.2120466  52.2698510   8.5780846  21.3267624  51.3140441
  13.5140316  23.3519903  53.9461593  12.9539874  23.4213093  54.7193155
  12.9083819  23.1760888  53.2261090   6.4712059  29.5106766  46.5436372
   7.3057663  29.0787965  46.3613847   6.3096402  29.3388780  47.4713267
   6.1257952  26.0138879  47.9092712   6.0706755  25.8483151  46.9681156
   5.5004007  26.7214912  48.0654901   3.4403859  28.3187791  67.2346274
   4.3095018  28.4928444  66.8732909   2.9610610  29.1382208  67.1122004
  15.0996334  40.0276417  56.6391549  15.7374744  39.9083165  55.9354889
  14.9817177  40.9757261  56.6979501  11.9086041  39.9803845  56.5753074
  11.5704552  39.8644910  55.6873609  12.7775809  39.5795010  56.5554080
   7.7672856  41.8339322  52.5649965   7.2037722  41.7429259  51.7966253
   7.6525251  41.0139226  53.0452457  12.3905824  41.1338697  62.5339279
  12.3794465  40.7391495  61.6619783  12.5526463  40.4004770  63.1273051
   5.3137288  43.3290513  55.4034185   6.1058580  42.9881338  54.9880485
   5.5533939  43.4385488  56.3236339  13.3472415  45.5010289  47.8764430
  12.6960395  46.0864370  47.4898443  14.1416778  46.0316484  47.9359467
   7.2728042  42.5899427  48.2751564   8.0458918  42.0428414  48.1364440
   7.6253441  43.4543676  48.4866025   9.1113085  43.9175809  61.4818463
   8.8202951  44.8221440  61.3665130   9.7470069  43.9592336  62.1962533
  10.0369292  41.2952657  58.0719823  10.6332864  41.0708680  57.3576786
  10.0944263  40.5537403  58.6745271   9.6094320  38.7492093  45.9070014
   9.8619841  38.2273614  45.1453477   8.6718879  38.5858238  46.0096698
  14.6537603  37.7527871  53.7144757  15.4400692  37.3347294  53.3635174
  14.9176307  38.6573963  53.8826406  14.8247680  43.1900721  48.4133414
  14.1893513  43.2635348  49.1254319  14.4945087  43.7794320  47.7352493
  20.0546030  37.6903104  54.6177736  20.7871202  37.1202321  54.8515565
  19.2985386  37.3024705  55.0584241   9.3290609  40.6520199  48.1094389
   9.2126867  39.9765102  48.7775473   9.4392869  40.1652573  47.2926542
  11.6722150  40.1130346  51.8141078  11.3080357  39.5860967  52.5254000
  12.5289266  39.7228815  51.6407564  17.5771450  31.4024678  59.0772344
  17.2454775  32.2720089  58.8533559  16.9817064  31.0860962  59.7566375
  11.3127637  35.1420245  46.8102427  11.4802039  36.0100482  47.1772898
  11.1224806  35.3047527  45.8863716  14.0702970  43.6037224  58.4768257
  13.7703693  44.5062263  58.3684064  13.7254029  43.3369408  59.3289410
   7.5215451  40.0551021  54.5104961   6.5965948  39.9227235  54.7182653
   7.7699865  40.8345240  55.0074904  17.4700114  36.1219765  56.1565694
  16.5616991  36.0535173  55.8624455  17.4187710  36.5991710  56.9847520
  11.2916858  37.5977903  47.7949094  11.1716483  38.0434954  48.6334574
  10.5969446  37.9463221  47.2362632   4.8824262  39.6984295  55.3448751
   5.0116644  39.9518774  56.2588162   4.2021714  40.2912003  55.0253406
   9.0523750  50.3681545  51.4439225   8.9747779  51.3189370  51.5227705
   8.4485393  50.0227417  52.1014151  11.5440980  37.5409410  64.1000592
  10.7674314  38.1003330  64.0903456  12.1831543  38.0266193  64.6215462
  19.3361760  34.3236203  57.9343568  18.6936140  34.6168736  57.2883363
  18.8316689  34.2089123  58.7396765  16.9901924  38.0699376  48.6229428
  17.9019780  38.3026763  48.4477125  16.4811571  38.6536420  48.0604506
   9.7987352  40.3494864  63.6618559  10.5402036  40.8879907  63.3853382
   9.0924337  40.9761152  63.8190110  15.2742691  42.4924004  62.2590720
  15.6826048  42.0506415  61.5145352  14.5519953  41.9176632  62.5124913
  11.6273762  37.4296611  59.6324277  12.4734957  37.8536024  59.7758926
  11.5672399  36.7730235  60.3262840  15.5971506  43.0525195  56.0143009
  14.9680369  43.2170909  55.3119077  15.2097168  43.4666804  56.7853973
  19.4760738  43.9879632  53.3687373  18.7911776  44.3678534  52.8184406
  19.5604587  44.5974959  54.1019321  14.7773207  35.0900979  61.2905451
  14.5334139  35.8443040  60.7539726  15.0533137  35.4686327  62.1252698
  16.7311670  41.6339591  59.9682716  16.9428565  42.2771351  59.2917097
  16.6841418  40.8001908  59.5004646  14.3337899  34.2457412  56.8719288
  13.4722378  34.5438666  57.1636026  14.3600333  34.4627811  55.9400321
  11.1499468  42.7899603  53.2793094  11.6137814  43.0687306  52.4897717
  10.8856266  41.8883047  53.0966185   8.0423549  42.3371084  56.2172857
   8.6124906  42.7658353  55.5790342   8.6331661  42.0553669  56.9157043
  10.0868354  38.9122755  50.0882659  10.7892397  39.3643799  50.5556586
   9.7548983  38.2706574  50.7162552   8.5348716  37.5034512  64.4633869
   7.9047376  38.1850793  64.6969265   8.4284803  37.3917593  63.5187007
   3.8293688  37.1706308  55.3899793   3.0392742  37.4263836  54.9139903
   4.3204935  37.9854646  55.4951833  17.8457498  44.5111547  58.1405074
  18.6674941  44.1091734  57.8587755  17.8419900  44.4079781  59.0921189
   5.7808433  37.5350887  52.3483270   4.9839597  37.6469581  52.8666765
   5.5534026  37.8737539  51.4824160  11.6114101  44.0595590  60.2965784
  11.6758534  44.5215997  61.1323956  10.9025025  43.4292955  60.4248094
   2.1131391  37.4236798  57.8214784   2.3639429  38.3083808  58.0872360
   2.6490939  37.2441400  57.0489875  11.3262119  45.7263698  50.1644764
  11.1907793  46.5715233  50.5929612  11.8671931  45.9282975  49.4010698
   7.8129458  31.8055278  66.8259120   7.4196404  31.2521476  67.5006764
   8.6295599  32.1165856  67.2165637   4.7791516  43.2439136  50.7372690
   5.2916037  44.0382386  50.8878254   5.4314229  42.5465426  50.6706291
   6.5886401  46.3604892  52.8195443   6.7653029  47.2822857  52.6316427
   7.3843234  46.0463311  53.2489823  10.7297419  33.2213157  64.4179376
  11.4707133  33.8220310  64.3383839  10.9615342  32.4790794  63.8597419
   5.8738757  38.4069524  62.6957606   5.7592272  37.5054781  62.9964705
   5.0183275  38.6533221  62.3442422  12.9530595  46.3487264  64.2945107
  12.5094449  45.5623643  63.9766011  13.6147809  46.5366415  63.6288997
   7.7117716  47.8783066  58.8205785   8.2625141  47.7500129  58.0482779
   6.8729192  48.1777955  58.4700678  15.0511833  46.6290064  62.3226508
  15.0330308  47.4498945  61.8306777  15.9731753  46.5044139  62.5476649
  11.5084887  44.1434194  63.1650016  12.0413224  43.3822482  62.9349324
  10.9798968  43.8507845  63.9074171  14.6754582  29.2494260  58.6943658
  14.3318852  30.1395901  58.6182769  15.0433545  29.0595917  57.8313243
   2.7440433  41.5727790  51.5132260   3.5815655  41.9824798  51.2965968
   2.9218701  40.6327232  51.4832454  14.6404865  39.2402871  47.2016093
  14.1251488  40.0107475  47.4404480  14.3682173  38.5668007  47.8249154
  12.2251976  34.0852571  52.2601331  11.3693572  33.6959422  52.0806970
  12.6378928  34.1644532  51.4001117  13.7551123  31.6198915  56.6592891
  13.2515918  31.5829050  55.8460696  14.0481729  32.5291657  56.7189548
   9.9994009  31.7037644  55.6659073  10.8647005  31.5080453  55.3064962
  10.0671517  31.4747996  56.5928430  19.6139139  41.9935225  49.1369267
  18.8368582  41.6546385  48.6924429  20.2930620  41.9987848  48.4624232
  14.4291168  37.1129963  49.0275874  14.1241304  37.4276112  49.8786017
  15.3821610  37.1911383  49.0703207  12.8737600  43.2720186  50.6768828
  12.3458962  42.5372946  50.3642066  12.3725103  44.0494862  50.4308797
  17.8530446  41.4669207  55.7935875  17.1954120  42.1568468  55.8816003
  18.6570845  41.8565639  56.1369861   7.6056328  33.9339852  53.0375440
   8.1800079  33.7115034  52.3048633   8.1927310  34.0028547  53.7904041
  16.6635905  39.8213579  53.8439816  17.1767787  40.4543571  54.3461526
  17.3137129  39.2214775  53.4783176   7.9325915  35.9644313  47.0571325
   7.0963227  36.3019000  47.3780600   7.7930684  35.8293293  46.1198462
   9.9078995  30.8081101  51.7650509   9.2543408  30.4930118  51.1407124
   9.8659469  30.1856842  52.4910332  11.0190200  41.0900396  43.6803801
  10.1117262  40.8589650  43.8794950  11.5161232  40.2938016  43.8677783
  13.9258279  49.7997904  46.6000487  13.2519978  50.1029600  47.2085445
  14.3124101  50.6026984  46.2505944  13.1416736  37.2963035  56.0898157
  12.2239297  37.5177982  55.9319845  13.5576879  37.3709345  55.2309864
  13.9251783  38.6954451  51.2200837  14.6723602  39.2075848  50.9107959
  14.1943373  38.3738503  52.0805231  12.1978434  41.1912991  48.2027791
  11.2889653  40.9072024  48.3000261  12.2273517  41.6112070  47.3431098
  17.4297701  44.8019581  51.9718959  16.9760028  43.9610491  52.0284149
  16.7991668  45.4380979  52.3093739  16.3730621  35.7311567  53.2019626
  15.6353377  35.2188953  53.5329869  16.6257394  35.2911948  52.3902903
  15.8730640  46.6396077  52.9068777  16.1653615  47.2001135  52.1881143
  16.3829261  46.9324638  53.6621936  16.4742248  28.5087819  53.7961396
  16.7801125  27.6485182  53.5087311  17.1994853  29.1005439  53.5960390
   2.7666604  38.9118505  52.1842994   2.5691004  38.3187866  51.4594060
   2.2113268  38.6070716  52.9018932  10.7463328  38.8041612  54.3037587
  10.8011937  37.8515448  54.2280063   9.9354530  38.9601051  54.7878885
  11.8954521  42.7321735  45.5415870  11.4573951  42.0157594  45.0821507
  12.6364962  42.9597850  44.9800961   8.6855688  37.4218672  52.0627966
   7.8723553  37.7212842  52.4693158   9.1814682  37.0274360  52.7802448
  10.8364265  47.4176429  53.9962230  10.7940444  47.6437275  53.0670762
  11.7526964  47.1839803  54.1448031  14.2829899  37.8860496  60.8942859
  14.6379287  38.1131969  61.7537325  14.9302030  38.2178873  60.2720115
  20.0127636  41.0078932  51.5992188  19.8745535  41.1980528  50.6713378
  19.6563855  41.7698315  52.0560240   8.1769762  34.9937027  57.6789201
   8.8169142  34.8525786  56.9812164   7.3447293  34.7071540  57.3027802
  20.0397016  43.0755459  56.6103460  20.4733522  42.9830748  57.4586514
  20.7528596  43.0512959  55.9723476   8.9530066  44.2939458  53.7924193
   9.7470665  43.7989778  53.5906768   8.2421759  43.7657321  53.4291899
  13.7724911  46.6757553  58.1436561  13.8261933  47.2448489  58.9114276
  12.9039692  46.8459438  57.7790598   5.2612830  38.4382539  49.8683946
   4.3310418  38.3766995  50.0853908   5.3570302  37.9158492  49.0720587
   5.1798379  34.9637352  52.4562187   5.4405196  35.8782685  52.3471348
   6.0015551  34.4961795  52.6058800   6.6523304  36.3775109  59.6261012
   7.3246357  36.1692471  58.9773661   5.8253091  36.1797195  59.1866244
  20.9012565  43.1179160  59.1436345  21.0948455  44.0224970  59.3895620
  20.8013184  42.6586579  59.9774930  12.5548876  33.0037050  61.6426673
  11.9076791  33.7027000  61.5491149  13.3249891  33.4373194  62.0102921
  15.9627674  43.2685902  64.7177226  15.8113180  43.0396454  63.8007310
  15.9532353  44.2256504  64.7308571  12.7313010  40.8417815  59.7023492
  13.6605070  40.9928975  59.5292460  12.3104040  40.9301836  58.8472139
  11.5301342  44.8668480  57.4722030  11.3912428  44.4987264  58.3447968
  10.7415938  45.3816119  57.3005988  12.1249494  49.9677576  48.8147567
  12.3001250  49.4965619  49.6293189  11.4382282  50.5943342  49.0428827
  13.0806557  44.2450082  54.8610868  12.7456390  44.2050852  55.7568518
  12.5810503  43.5794798  54.3881278   7.0550801  39.6517712  60.3863449
   6.9170599  38.9197951  60.9874988   7.9655725  39.5626612  60.1047637
  16.0165749  41.5906117  45.1347927  15.3994920  40.8652945  45.0380980
  15.5482237  42.3515477  44.7915002   9.6833102  39.3637672  59.8747129
  10.3932721  38.7230864  59.8333747   9.6402410  39.6150566  60.7973309
  17.6719881  46.3005025  62.7953708  17.6132427  45.6164245  62.1284291
  18.0739399  47.0424015  62.3434334   8.3962036  36.3502889  61.6942768
   7.8599393  35.8993628  62.3464364   7.8078744  36.4848798  60.9513232
   6.6910579  53.1166939  55.5887427   6.9307178  53.7485463  56.2666445
   5.8479776  52.7654979  55.8752786   7.8064295  35.8091541  44.2569232
   6.9293761  35.6880342  43.8931478   8.2822048  35.0177619  44.0048120
  17.6737288  44.2644609  61.0267688  16.7864067  43.9270531  61.1494086
  18.2435839  43.5327640  61.2636453   4.1301157  35.4858897  58.7795763
   4.0459346  34.8784567  58.0446173   3.3083864  35.9767915  58.7805259
  11.2038441  48.9246061  57.9928931  11.1308613  49.7301033  58.5048235
  10.7615834  49.1238027  57.1676952  10.9928221  48.1617831  51.5031752
  10.2095743  48.7039511  51.5969977  11.6920966  48.6791811  51.9025993
  14.3024871  33.9712461  54.1465958  14.7993571  33.2182423  53.8267028
  13.5311853  34.0076777  53.5809167  22.1554628  39.6752826  55.7884249
  22.1444505  40.5577542  55.4178182  21.2872008  39.3224377  55.5938786
  13.6637125  48.8232895  60.1487089  14.3765097  49.4580360  60.0762991
  13.1727153  48.9196761  59.3327091  15.3854652  42.7284148  51.7204381
  14.4510930  42.8485610  51.5509085  15.5631320  41.8256615  51.4564391
  10.8859840  36.1129844  53.8737642  10.5157627  35.5600884  54.5618548
  11.3818932  35.5087977  53.3212642  18.7727203  38.5701467  52.2554415
  19.2387655  39.4029459  52.1814718  19.2234704  38.1046449  52.9599674
   8.7149038  46.5727339  60.9692660   9.4158498  47.2063822  61.1222054
   8.2444153  46.9142070  60.2088299  16.8403434  44.9145288  49.2540567
  17.1163278  44.8001883  50.1634441  15.9707933  44.5162773  49.2152740
  16.7443866  30.9382054  56.2945317  15.8306946  31.1686281  56.4627523
  17.1736967  31.0220498  57.1459349  16.5150324  39.1271946  58.7945211
  15.8621775  39.3747854  58.1397663  16.8930704  38.3136084  58.4607688
  13.4757498  49.1631639  52.8973381  13.6579893  48.3453295  53.3601133
  14.2990484  49.3799332  52.4598271  13.8099664  48.0899824  50.1588429
  14.3387430  47.5792279  49.5458591  14.0727883  47.7742355  51.0233962
  12.5637897  39.8691757  65.2811248  11.8878534  39.7685887  65.9513623
  13.3865531  39.7130971  65.7447245   4.3116756  46.1063694  57.9023763
   4.8970193  45.3607382  58.0351667   4.1141595  46.4167650  58.7860427
   7.1655412  49.1414941  52.9186205   6.4965787  49.6261069  52.4350245
   7.0268281  49.3884162  53.8329584  11.3060680  51.1758685  59.5168864
  11.8578988  51.3390306  60.2817949  11.6466874  51.7663122  58.8448888
   6.2825173  33.5233834  60.1190748   6.3466500  34.3848665  59.7068146
   6.2192294  32.9107836  59.3863107   5.7577446  35.5956967  63.7663783
   6.3849485  35.2134044  64.3801307   4.9005365  35.3771169  64.1319475
  16.1571555  46.0019942  65.3717518  16.7011459  46.6149900  64.8772473
  15.5758399  46.5599521  65.8884531   2.5342989  37.4033396  49.6982137
   2.8296430  36.4944074  49.6449191   1.6331025  37.3821136  49.3763140
  14.4429068  49.1240660  56.5032546  14.3180207  48.3230400  55.9943491
  15.1008159  49.6186854  56.0146516   6.0637236  35.4789393  55.6809686
   5.3423822  36.0925360  55.5417159   6.8530492  36.0147157  55.6026332
  16.5063976  46.9249680  58.1312096  15.5594311  46.8055031  58.0590423
  16.8546749  46.0372178  58.2138357   8.8663549  32.8143819  61.9550338
   9.3897951  33.0606116  62.7176647   8.6475883  33.6463854  61.5353475
   4.2630830  35.0847494  49.8221463   3.9343537  34.2044873  49.6396569
   4.6170201  35.0295162  50.7097852  13.5110409  46.7202396  54.3316448
  13.3635372  45.7919104  54.5124018  14.3363903  46.7422487  53.8473523
   7.3772654  35.3720464  50.1896940   7.7168726  35.9006385  49.4675549
   7.8244774  35.7100870  50.9655507  17.1144531  47.5430955  55.4181321
  18.0391079  47.3373817  55.2805772  16.9459834  47.2947356  56.3270662
  10.0716094  33.7557514  59.6400008   9.7312915  32.9565327  60.0420688
   9.3655101  34.0559225  59.0676842  10.7232566  30.8406827  58.0927331
  11.5458635  30.3667305  57.9706222  10.9670630  31.6197310  58.5926018
   9.3640801  33.8695085  48.3890233  10.0849163  34.2476338  47.8853950
   8.7406105  34.5883962  48.4925211  13.5071924  34.5740234  49.3248565
  13.7235538  35.4564872  49.0237394  13.0265991  34.1826448  48.5954207
   8.2471145  37.5325947  55.9019310   8.1015726  37.8466250  56.7943591
   7.7696349  38.1510848  55.3490209  10.1067528  34.5228495  55.9500200
  10.0929097  33.6269589  55.6132497  10.8239956  34.5299159  56.5838486
  11.9593659  34.9565836  57.9953327  11.7011436  35.8782906  57.9937657
  11.4278699  34.5596270  58.6853791  16.9039847  48.0616623  50.7743412
  17.0776725  47.4963045  50.0217265  17.3968739  48.8617518  50.5922902
   2.7216807  40.0731292  58.8406971   2.1770275  40.8491100  58.9727245
   3.5996157  40.4202096  58.6826093   9.5104424  33.4042876  51.2187770
   9.6320335  32.4759522  51.4178657   9.2206466  33.4181562  50.3066085
  12.3795614  31.0897786  54.3554489  12.4017311  31.1537119  53.4006469
  12.7963673  30.2502295  54.5494996  22.7579238  40.8253046  52.3933712
  23.2010384  40.0760371  51.9952835  21.8805749  40.8163182  52.0107444
  17.8915020  47.3783387  47.8740311  18.5865924  47.9990080  48.0927625
  18.2338170  46.5278738  48.1492688   3.5082829  39.2001188  61.7337128
   2.7664565  39.3483823  62.3201758   3.1875573  39.4609454  60.8703877
  19.7906443  44.8283093  49.4027641  20.3157767  45.1670365  48.6776961
  19.7028795  43.8930108  49.2190776  11.4526492  48.7417166  61.5317518
  11.7613618  48.4966313  62.4040218  12.2501974  48.9463805  61.0436388
  11.4747104  50.8955076  53.7622895  11.0352094  50.4031455  54.4555751
  12.2255221  50.3528044  53.5214970   3.9539443  47.0866617  53.7647523
   4.7797463  46.7870389  53.3846166   3.6033495  46.3174239  54.2137311
   8.9220976  46.4393085  55.8345196   8.3000985  45.7763790  55.5347424
   9.5925843  46.4654217  55.1518844   2.1548048  45.0052943  54.7236456
   1.3179956  44.5775118  54.5420457   2.1271693  45.1985387  55.6607247
   8.9945503  34.9174873  65.4277702   9.0433659  35.7936996  65.0455472
   9.5368017  34.3752266  64.8549345  19.4800349  45.4615996  64.7078839
  18.6895893  45.4440135  64.1683339  19.2433704  46.0004290  65.4627876
  19.5998224  42.3108463  62.0211568  19.6496229  42.1458470  62.9627091
  19.4912147  41.4435722  61.6309449   8.4834483  44.9897008  49.3103657
   8.6322603  45.6732473  48.6570330   9.2900926  44.9702098  49.8253112
  16.8901986  38.2939391  63.3370875  17.7911849  38.1545855  63.0454872
  16.9649961  38.4593845  64.2769052  11.2244792  35.6706245  62.1824061
  10.3548101  35.9639811  61.9106649  11.4604272  36.2546690  62.9031325
  21.1016421  44.7305404  62.2653589  20.8101229  45.0935385  63.1017050
  20.4888552  44.0172412  62.0866921  22.3012103  42.2958284  54.7856160
  23.1358995  42.7348088  54.9493720  22.4371232  41.8196937  53.9664405
  19.3503609  39.8538019  60.7333647  19.8257731  40.0465665  59.9252499
  18.4269174  39.9097205  60.4877031   6.2387116  41.0162186  50.3164726
   5.9933158  40.1124516  50.5144936   6.4083030  41.0179336  49.3744204
  13.9283826  31.8885862  59.6989481  14.4465769  32.6246889  59.3735970
  13.5738958  32.1949856  60.5336240   5.5082763  36.7490543  47.8150887
   4.8152008  36.8234898  47.1590923   5.2634515  35.9850887  48.3372404
  14.1796420  28.3086145  55.2190378  14.4598173  27.6409334  55.8450804
  14.9647027  28.5015240  54.7065042  11.9829888  47.4845139  46.7815404
  11.4103855  48.1035326  46.3285876  12.5562682  48.0344500  47.3155326
  18.0505278  36.7303779  58.9661953  19.0022701  36.8301876  58.9874177
  17.8808728  35.9382047  59.4760037  16.0719658  33.8159362  59.1521354
  15.4769590  34.0964375  58.4567843  15.7869354  34.3053263  59.9238095
  15.2027148  47.7682289  47.9123986  16.1357821  47.7027851  48.1156862
  15.1150361  48.6038556  47.4538519  17.8315165  47.0848159  44.8727934
  17.7528796  46.7508023  45.7663692  18.6524831  47.5769927  44.8719406
  20.5293356  39.9509899  58.0804253  20.4969676  39.0125899  58.2663936
  21.1393980  40.0293935  57.3470078  12.3676687  38.8205951  44.1231457
  13.3135791  38.6912160  44.1919875  11.9890932  38.0820613  44.6000885
  20.6787844  36.7420942  58.1262536  20.1626893  35.9579399  57.9392465
  21.5627793  36.4139659  58.2909055  18.3398571  30.4861958  54.0858349
  18.1423392  30.1777046  54.9701680  18.9498277  31.2123596  54.2156278
  26.3469906  41.0125905  57.2210289  27.0773294  40.7511193  57.7817993
  25.7376851  40.2754627  57.2612357  24.4285203  39.1533768  57.8184741
  23.7018366  39.0189733  57.2101232  24.0132490  39.4610597  58.6241459
  12.2515379  42.8723698  65.5832114  13.1718389  43.0502297  65.7772160
  12.2164962  41.9279743  65.4311813  10.5519604  36.7455928  44.0586342
   9.6451059  36.4489041  44.1349056  10.8295585  36.4485746  43.1920628
   1.4697544  38.0662291  54.5085388   1.1500329  37.2127599  54.2159762
   0.9230972  38.2810869  55.2643356   5.2477452  40.7824732  58.2254895
   5.4663462  41.7141840  58.2442929   5.6603226  40.4232707  59.0109699
  12.1681670  31.2892818  50.2130583  11.3582398  30.9439903  50.5885829
  12.8566087  30.9800361  50.8018195  14.0972218  30.3670864  51.8354880
  14.6503256  30.7866318  52.4944903  14.3342304  29.4406613  51.8777836
  10.1205317  36.3557938  67.6157644  10.0202044  37.3052295  67.5469735
   9.9026859  36.0276177  66.7433714   9.3218388  33.6042863  44.1998321
  10.1837552  33.9297761  44.4594138   9.5068733  32.8174359  43.6871387
   1.3385804  41.6865203  56.4778510   0.6449276  41.2719156  55.9648464
   2.0858795  41.7285739  55.8811929  17.4751025  32.4771390  51.3433544
  16.8949694  33.1356194  50.9611597  17.2086958  31.6548734  50.9320962
  15.9254591  31.8776447  53.5454864  16.4254370  31.9892982  52.7369183
  16.5690199  31.5737500  54.1855673   9.9836587  39.7855077  66.4322705
   9.5003669  40.5855437  66.6386594  10.0697526  39.7963022  65.4790149
   3.2522547  41.6183457  54.3544525   3.2293235  41.7171144  53.4026408
   3.5623183  42.4648607  54.6761691   5.9109925  43.6759612  58.4691139
   6.8653178  43.6443554  58.4021071   5.7122448  43.2150235  59.2841365
   6.5009307  42.2460728  61.0361937   7.3202196  42.7404806  61.0596774
   6.7746114  41.3292696  61.0079504  16.2575903  34.6371480  50.3989892
  15.3701758  34.9221131  50.1810087  16.6729892  34.4765243  49.5517169
  19.6090439  34.6618001  54.1144232  20.3850829  35.1514453  54.3868848
  18.8838573  35.0876055  54.5716101  22.0462998  35.3745620  55.1718172
  22.6407489  35.1341356  54.4611480  22.1189581  34.6552751  55.7991709
   4.2660153  49.2179231  55.4861337   4.1314621  48.4579632  54.9199335
   3.8492216  49.9420131  55.0190126  15.4019116  44.4016155  44.4937912
  16.1054967  44.6066157  45.1095568  14.6781765  44.9692917  44.7586996
  16.2316927  40.1526016  50.6140183  16.1752128  40.6094567  49.7747815
  16.7845269  39.3916700  50.4363025  20.0421733  35.9415748  51.4390302
  19.7858667  35.5412383  52.2698510  19.4174601  36.6559542  51.3140441
   7.4229279  50.1148548  55.6979780   7.3061663  51.0593981  55.5958470
   6.6021726  49.8122110  56.0865579  17.3105814  44.8398684  46.5436372
  18.1451418  44.4079882  46.3613847  17.1490157  44.6680697  47.4713267
  16.9651706  41.3430797  47.9092712  16.9100510  41.1775069  46.9681156
  16.3397761  42.0506830  48.0654901   1.7544221  36.5798861  61.7354134
   2.4003085  36.0697815  62.2241359   1.5461372  37.3167543  62.3097559
  14.2797613  43.6479709  67.2346274  15.1488773  43.8220361  66.8732909
  13.8004365  44.4674126  67.1122004  10.2747832  30.8438906  47.4878030
  10.2626501  31.7880746  47.6446301  11.1671253  30.6609052  47.1937491
   8.4483793  50.7676810  58.9135708   9.3511040  50.8000420  59.2302203
   8.2221164  49.8377261  58.9282044  10.2037395  49.5207797  55.5745787
   9.2533026  49.5209658  55.4610159  10.5069882  48.7740531  55.0581821
  14.0899951  27.4381683  51.7423967  13.3232347  26.8840169  51.8880649
  14.5010656  27.5103552  52.6038119   6.0941712  33.7266479  65.8329148
   6.9573174  33.3703283  66.0432473   5.5207123  33.3880373  66.5204552
  25.9390089  55.3568335  56.6391549  26.5768499  55.2375082  55.9354889
  25.8210932  56.3049179  56.6979501  22.7479795  55.3095763  56.5753074
  22.4098307  55.1936828  55.6873609  23.6169563  54.9086928  56.5554080
  18.6066611  57.1631239  52.5649965  18.0431476  57.0721176  51.7966253
  18.4919006  56.3431144  53.0452457  23.2299578  56.4630615  62.5339279
  23.2188219  56.0683413  61.6619783  23.3920218  55.7296687  63.1273051
  16.1531043  58.6582431  55.4034185  16.9452335  58.3173256  54.9880485
  16.3927693  58.7677406  56.3236339  24.1866170  60.8302207  47.8764430
  23.5354149  61.4156288  47.4898443  24.9810532  61.3608402  47.9359467
  18.1121797  57.9191344  48.2751564  18.8852673  57.3720331  48.1364440
  18.4647196  58.7835594  48.4866025  19.9506839  59.2467727  61.4818463
  19.6596705  60.1513357  61.3665130  20.5863824  59.2884254  62.1962533
  20.8763046  56.6244575  58.0719823  21.4726618  56.4000597  57.3576786
  20.9338018  55.8829321  58.6745271  20.4488075  54.0784010  45.9070014
  20.7013595  53.5565532  45.1453477  19.5112634  53.9150156  46.0096698
  25.4931357  53.0819789  53.7144757  26.2794447  52.6639212  53.3635174
  25.7570062  53.9865881  53.8826406  25.6641435  58.5192639  48.4133414
  25.0287268  58.5927266  49.1254319  25.3338841  59.1086238  47.7352493
  30.8939785  53.0195022  54.6177736  31.6264957  52.4494239  54.8515565
  30.1379140  52.6316622  55.0584241  20.1684363  55.9812116  48.1094389
  20.0520621  55.3057020  48.7775473  20.2786623  55.4944490  47.2926542
  22.5115904  55.4422263  51.8141078  22.1474112  54.9152884  52.5254000
  23.3683020  55.0520733  51.6407564  28.4165205  46.7316596  59.0772344
  28.0848530  47.6012007  58.8533559  27.8210818  46.4152880  59.7566375
  22.1521391  50.4712163  46.8102427  22.3195794  51.3392400  47.1772898
  21.9618560  50.6339445  45.8863716  24.9096724  58.9329142  58.4768257
  24.6097448  59.8354181  58.3684064  24.5647784  58.6661325  59.3289410
  18.3609206  55.3842939  54.5104961  17.4359702  55.2519153  54.7182653
  18.6093619  56.1637158  55.0074904  28.3093868  51.4511682  56.1565694
  27.4010746  51.3827091  55.8624455  28.2581464  51.9283627  56.9847520
  22.1310612  52.9269821  47.7949094  22.0110237  53.3726871  48.6334574
  21.4363201  53.2755138  47.2362632  15.7218017  55.0276212  55.3448751
  15.8510398  55.2810691  56.2588162  15.0415468  55.6203920  55.0253406
  19.8917504  65.6973462  51.4439225  19.8141534  66.6481287  51.5227705
  19.2879148  65.3519335  52.1014151  22.3834734  52.8701328  64.1000592
  21.6068068  53.4295248  64.0903456  23.0225297  53.3558111  64.6215462
  27.8295678  53.3991294  48.6229428  28.7413534  53.6318681  48.4477125
  27.3205325  53.9828338  48.0604506  20.6381106  55.6786781  63.6618559
  21.3795791  56.2171825  63.3853382  19.9318092  56.3053070  63.8190110
  26.1136446  57.8215922  62.2590720  26.5219802  57.3798332  61.5145352
  25.3913707  57.2468549  62.5124913  22.4667516  52.7588528  59.6324277
  23.3128711  53.1827942  59.7758926  22.4066154  52.1022153  60.3262840
  26.4365261  58.3817112  56.0143009  25.8074123  58.5462826  55.3119077
  26.0490923  58.7958722  56.7853973  30.3154493  59.3171550  53.3687373
  29.6305531  59.6970451  52.8184406  30.3998342  59.9266877  54.1019321
  25.6166961  50.4192897  61.2905451  25.3727893  51.1734957  60.7539726
  25.8926892  50.7978244  62.1252698  27.5705424  56.9631509  59.9682716
  27.7822319  57.6063269  59.2917097  27.5235172  56.1293826  59.5004646
  25.1731653  49.5749330  56.8719288  24.3116132  49.8730583  57.1636026
  25.1994088  49.7919729  55.9400321  21.9893222  58.1191520  53.2793094
  22.4531568  58.3979223  52.4897717  21.7250021  57.2174965  53.0966185
  18.8817304  57.6663002  56.2172857  19.4518661  58.0950270  55.5790342
  19.4725415  57.3845587  56.9157043  20.9262109  54.2414673  50.0882659
  21.6286152  54.6935716  50.5556586  20.5942737  53.5998492  50.7162552
  19.3742470  52.8326429  64.4633869  18.7441131  53.5142710  64.6969265
  19.2678558  52.7209511  63.5187007  14.6687442  52.4998225  55.3899793
  13.8786496  52.7555754  54.9139903  15.1598690  53.3146563  55.4951833
  28.6851252  59.8403465  58.1405074  29.5068696  59.4383652  57.8587755
  28.6813655  59.7371699  59.0921189  16.6202188  52.8642805  52.3483270
  15.8233351  52.9761499  52.8666765  16.3927780  53.2029457  51.4824160
  22.4507856  59.3887508  60.2965784  22.5152288  59.8507915  61.1323956
  21.7418779  58.7584873  60.4248094  12.9525145  52.7528716  57.8214784
  13.2033184  53.6375726  58.0872360  13.4884694  52.5733317  57.0489875
  22.1655873  61.0555615  50.1644764  22.0301548  61.9007151  50.5929612
  22.7065686  61.2574893  49.4010698  18.6523213  47.1347195  66.8259120
  18.2590158  46.5813394  67.5006764  19.4689353  47.4457774  67.2165637
  15.6185271  58.5731053  50.7372690  16.1309791  59.3674304  50.8878254
  16.2707983  57.8757344  50.6706291  17.4280155  61.6896810  52.8195443
  17.6046784  62.6114774  52.6316427  18.2236989  61.3755229  53.2489823
  21.5691174  48.5505074  64.4179376  22.3100887  49.1512227  64.3383839
  21.8009097  47.8082712  63.8597419  16.7132512  53.7361442  62.6957606
  16.5986027  52.8346699  62.9964705  15.8577030  53.9825138  62.3442422
  23.7924350  61.6779182  64.2945107  23.3488204  60.8915560  63.9766011
  24.4541563  61.8658332  63.6288997  18.5511471  63.2074983  58.8205785
  19.1018896  63.0792047  58.0482779  17.7122947  63.5069872  58.4700678
  25.8905588  61.9581982  62.3226508  25.8724063  62.7790863  61.8306777
  26.8125508  61.8336057  62.5476649  22.3478642  59.4726111  63.1650016
  22.8806979  58.7114399  62.9349324  21.8192723  59.1799763  63.9074171
  25.5148337  44.5786177  58.6943658  25.1712606  45.4687819  58.6182769
  25.8827299  44.3887835  57.8313243  13.5834187  56.9019708  51.5132260
  14.4209409  57.3116716  51.2965968  13.7612455  55.9619150  51.4832454
  25.4798619  54.5694788  47.2016093  24.9645243  55.3399393  47.4404480
  25.2075928  53.8959925  47.8249154  23.0645730  49.4144489  52.2601331
  22.2087327  49.0251340  52.0806970  23.4772682  49.4936450  51.4001117
  24.5944877  46.9490832  56.6592891  24.0909673  46.9120968  55.8460696
  24.8875484  47.8583575  56.7189548  20.8387763  47.0329562  55.6659073
  21.7040760  46.8372371  55.3064962  20.9065272  46.8039914  56.5928430
  30.4532894  57.3227143  49.1369267  29.6762336  56.9838302  48.6924429
  31.1324375  57.3279766  48.4624232  25.2684923  52.4421880  49.0275874
  24.9635058  52.7568030  49.8786017  26.2215365  52.5203300  49.0703207
  23.7131354  58.6012104  50.6768828  23.1852716  57.8664863  50.3642066
  23.2118857  59.3786780  50.4308797  28.6924200  56.7961124  55.7935875
  28.0347875  57.4860386  55.8816003  29.4964600  57.1857556  56.1369861
  18.4450082  49.2631770  53.0375440  19.0193834  49.0406952  52.3048633
  19.0321065  49.3320465  53.7904041  27.5029659  55.1505497  53.8439816
  28.0161541  55.7835489  54.3461526  28.1530883  54.5506692  53.4783176
  18.7719669  51.2936231  47.0571325  17.9356981  51.6310918  47.3780600
  18.6324439  51.1585211  46.1198462  20.7472750  46.1373019  51.7650509
  20.0937162  45.8222036  51.1407124  20.7053224  45.5148759  52.4910332
  21.8583955  56.4192314  43.6803801  20.9511016  56.1881567  43.8794950
  22.3554987  55.6229933  43.8677783  24.7652034  65.1289821  46.6000487
  24.0913732  65.4321518  47.2085445  25.1517856  65.9318902  46.2505944
  23.9810490  52.6254952  56.0898157  23.0633052  52.8469900  55.9319845
  24.3970634  52.7001263  55.2309864  24.7645538  54.0246368  51.2200837
  25.5117357  54.5367765  50.9107959  25.0337127  53.7030421  52.0805231
  23.0372188  56.5204909  48.2027791  22.1283407  56.2363942  48.3000261
  23.0667272  56.9403987  47.3431098  28.2691456  60.1311498  51.9718959
  27.8153783  59.2902408  52.0284149  27.6385422  60.7672897  52.3093739
  27.2124375  51.0603484  53.2019626  26.4747132  50.5480871  53.5329869
  27.4651149  50.6203866  52.3902903  26.7124395  61.9687995  52.9068777
  27.0047369  62.5293052  52.1881143  27.2223015  62.2616556  53.6621936
  13.6060358  54.2410423  52.1842994  13.4084758  53.6479784  51.4594060
  13.0507022  53.9362633  52.9018932  21.5857082  54.1333530  54.3037587
  21.6405692  53.1807366  54.2280063  20.7748284  54.2892969  54.7878885
  22.7348276  58.0613653  45.5415870  22.2967706  57.3449511  45.0821507
  23.4758717  58.2889767  44.9800961  19.5249442  52.7510589  52.0627966
  18.7117308  53.0504760  52.4693158  20.0208436  52.3566278  52.7802448
  21.6758020  62.7468346  53.9962230  21.6334199  62.9729192  53.0670762
  22.5920719  62.5131721  54.1448031  25.1223654  53.2152414  60.8942859
  25.4773041  53.4423887  61.7537325  25.7695785  53.5470791  60.2720115
  30.8521391  56.3370850  51.5992188  30.7139289  56.5272446  50.6713378
  30.4957609  57.0990232  52.0560240  19.0163517  50.3228945  57.6789201
  19.6562896  50.1817704  56.9812164  18.1841047  50.0363458  57.3027802
  30.8790770  58.4047377  56.6103460  31.3127277  58.3122666  57.4586514
  31.5922351  58.3804877  55.9723476  19.7923821  59.6231375  53.7924193
  20.5864419  59.1281695  53.5906768  19.0815513  59.0949238  53.4291899
  24.6118665  62.0049471  58.1436561  24.6655687  62.5740407  58.9114276
  23.7433447  62.1751356  57.7790598  16.1006584  53.7674457  49.8683946
  15.1704172  53.7058912  50.0853908  16.1964056  53.2450410  49.0720587
  16.0192133  50.2929270  52.4562187  16.2798951  51.2074603  52.3471348
  16.8409306  49.8253712  52.6058800  17.4917059  51.7067027  59.6261012
  18.1640112  51.4984389  58.9773661  16.6646845  51.5089113  59.1866244
  31.7406320  58.4471077  59.1436345  31.9342210  59.3516888  59.3895620
  31.6406938  57.9878496  59.9774930  23.3942631  48.3328968  61.6426673
  22.7470546  49.0318918  61.5491149  24.1643646  48.7665112  62.0102921
  26.8021429  58.5977820  64.7177226  26.6506935  58.3688372  63.8007310
  26.7926108  59.5548421  64.7308571  23.5706765  56.1709733  59.7023492
  24.4998825  56.3220892  59.5292460  23.1497795  56.2593754  58.8472139
  22.3695097  60.1960397  57.4722030  22.2306182  59.8279182  58.3447968
  21.5809693  60.7108037  57.3005988  22.9643249  65.2969494  48.8147567
  23.1395004  64.8257537  49.6293189  22.2776037  65.9235260  49.0428827
  23.9200312  59.5742000  54.8610868  23.5850144  59.5342770  55.7568518
  23.4204258  58.9086716  54.3881278  17.8944556  54.9809630  60.3863449
  17.7564354  54.2489869  60.9874988  18.8049479  54.8918530  60.1047637
  26.8559504  56.9198034  45.1347927  26.2388674  56.1944862  45.0380980
  26.3875992  57.6807394  44.7915002  20.5226856  54.6929589  59.8747129
  21.2326475  54.0522781  59.8333747  20.4796165  54.9442484  60.7973309
  28.5113635  61.6296943  62.7953708  28.4526181  60.9456163  62.1284291
  28.9133154  62.3715933  62.3434334  19.2355790  51.6794807  61.6942768
  18.6993147  51.2285546  62.3464364  18.6472499  51.8140716  60.9513232
  17.5304334  68.4458856  55.5887427  17.7700932  69.0777381  56.2666445
  16.6873530  68.0946896  55.8752786  18.6458049  51.1383459  44.2569232
  17.7687516  51.0172259  43.8931478  19.1215802  50.3469537  44.0048120
  28.5131042  59.5936527  61.0267688  27.6257821  59.2562448  61.1494086
  29.0829593  58.8619558  61.2636453  10.1660190  55.9260618  54.3510739
  10.8531229  55.6122348  53.7631754  10.0108318  56.8301983  54.0777990
  14.9694912  50.8150815  58.7795763  14.8853100  50.2076484  58.0446173
  14.1477618  51.3059833  58.7805259  22.0432196  64.2537979  57.9928931
  21.9702367  65.0592950  58.5048235  21.6009589  64.4529945  57.1676952
  21.8321975  63.4909749  51.5031752  21.0489497  64.0331429  51.5969977
  22.5314721  64.0083729  51.9025993  25.1418626  49.3004378  54.1465958
  25.6387325  48.5474341  53.8267028  24.3705607  49.3368695  53.5809167
  32.9948383  55.0044744  55.7884249  32.9838259  55.8869459  55.4178182
  32.1265762  54.6516295  55.5938786  24.5030879  64.1524813  60.1487089
  25.2158852  64.7872278  60.0762991  24.0120908  64.2488679  59.3327091
  26.2248406  58.0576066  51.7204381  25.2904685  58.1777528  51.5509085
  26.4025075  57.1548532  51.4564391  21.7253594  51.4421761  53.8737642
  21.3551382  50.8892802  54.5618548  22.2212687  50.8379895  53.3212642
  29.6120958  53.8993385  52.2554415  30.0781410  54.7321376  52.1814718
  30.0628458  53.4338366  52.9599674  19.5542793  61.9019256  60.9692660
  20.2552252  62.5355739  61.1222054  19.0837908  62.2433988  60.2088299
  27.6797189  60.2437206  49.2540567  27.9557033  60.1293801  50.1634441
  26.8101687  59.8454691  49.2152740  27.5837620  46.2673972  56.2945317
  26.6700700  46.4978199  56.4627523  28.0130722  46.3512416  57.1459349
  27.3544079  54.4563864  58.7945211  26.7015529  54.7039771  58.1397663
  27.7324459  53.6428002  58.4607688  24.3151253  64.4923557  52.8973381
  24.4973647  63.6745213  53.3601133  25.1384239  64.7091249  52.4598271
  24.6493418  63.4191742  50.1588429  25.1781185  62.9084197  49.5458591
  24.9121638  63.1034272  51.0233962  23.4031652  55.1983675  65.2811248
  22.7272289  55.0977804  65.9513623  24.2259286  55.0422889  65.7447245
  15.1510511  61.4355611  57.9023763  15.7363948  60.6899299  58.0351667
  14.9535349  61.7459568  58.7860427  18.0049166  64.4706859  52.9186205
  17.3359541  64.9552986  52.4350245  17.8662036  64.7176079  53.8329584
   9.7428166  54.0061212  56.6228206   9.7812265  53.4724802  57.4165324
   9.2368459  53.4796417  56.0039183  22.1454435  66.5050602  59.5168864
  22.6972743  66.6682224  60.2817949  22.4860628  67.0955040  58.8448888
  17.1218928  48.8525752  60.1190748  17.1860254  49.7140583  59.7068146
  17.0586048  48.2399754  59.3863107  16.5971201  50.9248885  63.7663783
  17.2243239  50.5425962  64.3801307  15.7399119  50.7063087  64.1319475
  26.9965309  61.3311860  65.3717518  27.5405213  61.9441818  64.8772473
  26.4152154  61.8891438  65.8884531  13.3736743  52.7325314  49.6982137
  13.6690184  51.8235992  49.6449191  12.4724779  52.7113053  49.3763140
  25.2822822  64.4532578  56.5032546  25.1573961  63.6522318  55.9943491
  25.9401913  64.9478771  56.0146516  16.9030990  50.8081310  55.6809686
  16.1817576  51.4217278  55.5417159  17.6924246  51.3439075  55.6026332
  27.3457730  62.2541598  58.1312096  26.3988066  62.1346949  58.0590423
  27.6940504  61.3664096  58.2138357  19.7057304  48.1435737  61.9550338
  20.2291706  48.3898033  62.7176647  19.4869637  48.9755772  61.5353475
  15.1024585  50.4139411  49.8221463  14.7737291  49.5336790  49.6396569
  15.4563956  50.3587080  50.7097852  24.3504164  62.0494314  54.3316448
  24.2029126  61.1211022  54.5124018  25.1757657  62.0714405  53.8473523
  18.2166408  50.7012381  50.1896940  18.5562481  51.2298302  49.4675549
  18.6638528  51.0392787  50.9655507  27.9538286  62.8722873  55.4181321
  28.8784833  62.6665734  55.2805772  27.7853589  62.6239274  56.3270662
  20.9109849  49.0849432  59.6400008  20.5706669  48.2857245  60.0420688
  20.2048855  49.3851143  59.0676842  21.5626321  46.1698744  58.0927331
  22.3852390  45.6959223  57.9706222  21.8064384  46.9489228  58.5926018
  20.2034555  49.1987003  48.3890233  20.9242918  49.5768256  47.8853950
  19.5799859  49.9175880  48.4925211  24.3465678  49.9032152  49.3248565
  24.5629292  50.7856790  49.0237394  23.8659745  49.5118365  48.5954207
  19.0864899  52.8617865  55.9019310  18.9409480  53.1758168  56.7943591
  18.6090103  53.4802765  55.3490209  20.9461282  49.8520413  55.9500200
  20.9322851  48.9561506  55.6132497  21.6633710  49.8591077  56.5838486
  22.7987413  50.2857753  57.9953327  22.5405191  51.2074824  57.9937657
  22.2672453  49.8888188  58.6853791  27.7433602  63.3908540  50.7743412
  27.9170479  62.8254963  50.0217265  28.2362493  64.1909435  50.5922902
  13.5610562  55.4023209  58.8406971  13.0164030  56.1783017  58.9727245
  14.4389911  55.7494014  58.6826093  20.3498178  48.7334793  51.2187770
  20.4714089  47.8051439  51.4178657  20.0600221  48.7473479  50.3066085
  23.2189369  46.4189704  54.3554489  23.2411065  46.4829037  53.4006469
  23.6357428  45.5794212  54.5494996  33.5972993  56.1544963  52.3933712
  34.0404139  55.4052288  51.9952835  32.7199503  56.1455100  52.0107444
  28.7308774  62.7075305  47.8740311  29.4259679  63.3281997  48.0927625
  29.0731924  61.8570656  48.1492688  14.3476583  54.5293106  61.7337128
  13.6058319  54.6775741  62.3201758  14.0269328  54.7901371  60.8703877
  30.6300197  60.1575010  49.4027641  31.1551521  60.4962283  48.6776961
  30.5422550  59.2222026  49.2190776  22.2920246  64.0709084  61.5317518
  22.6007373  63.8258231  62.4040218  23.0895728  64.2755722  61.0436388
  22.3140858  66.2246994  53.7622895  21.8745848  65.7323372  54.4555751
  23.0648975  65.6819961  53.5214970  14.7933197  62.4158534  53.7647523
  15.6191217  62.1162306  53.3846166  14.4427249  61.6466157  54.2137311
  19.7614730  61.7685003  55.8345196  19.1394740  61.1055708  55.5347424
  20.4319597  61.7946135  55.1518844  12.9941802  60.3344861  54.7236456
  12.1573710  59.9067035  54.5420457  12.9665448  60.5277304  55.6607247
  19.8339258  50.2466791  65.4277702  19.8827413  51.1228913  65.0455472
  20.3761772  49.7044184  64.8549345  30.3194103  60.7907914  64.7078839
  29.5289647  60.7732053  64.1683339  30.0827458  61.3296208  65.4627876
  30.4391978  57.6400380  62.0211568  30.4889983  57.4750388  62.9627091
  30.3305902  56.7727639  61.6309449  19.3228237  60.3188926  49.3103657
  19.4716358  61.0024390  48.6570330  20.1294681  60.2994016  49.8253112
  27.7295741  53.6231308  63.3370875  28.6305604  53.4837773  63.0454872
  27.8043715  53.7885763  64.2769052  22.0638546  50.9998163  62.1824061
  21.1941856  51.2931729  61.9106649  22.2998027  51.5838608  62.9031325
  31.9410175  60.0597322  62.2653589  31.6494984  60.4227302  63.1017050
  31.3282307  59.3464330  62.0866921  33.1405858  57.6250202  54.7856160
  33.9752749  58.0640006  54.9493720  33.2764986  57.1488855  53.9664405
  30.1897364  55.1829936  60.7333647  30.6651485  55.3757583  59.9252499
  29.2662929  55.2389122  60.4877031  17.0780870  56.3454104  50.3164726
  16.8326912  55.4416434  50.5144936  17.2476785  56.3471254  49.3744204
  24.7677580  47.2177780  59.6989481  25.2859524  47.9538807  59.3735970
  24.4132713  47.5241773  60.5336240  16.3476518  52.0782461  47.8150887
  15.6545763  52.1526816  47.1590923  16.1028270  51.3142805  48.3372404
  25.0190174  43.6378063  55.2190378  25.2991928  42.9701252  55.8450804
  25.8040781  43.8307158  54.7065042  22.8223643  62.8137056  46.7815404
  22.2497610  63.4327244  46.3285876  23.3956436  63.3636418  47.3155326
  28.8899033  52.0595696  58.9661953  29.8416455  52.1593794  58.9874177
  28.7202483  51.2673965  59.4760037  26.9113412  49.1451280  59.1521354
  26.3163344  49.4256292  58.4567843  26.6263109  49.6345181  59.9238095
  26.0420902  63.0974207  47.9123986  26.9751576  63.0319768  48.1156862
  25.9544115  63.9330473  47.4538519  28.6708919  62.4140077  44.8727934
  28.5922551  62.0799940  45.7663692  29.4918586  62.9061845  44.8719406
  31.3687110  55.2801816  58.0804253  31.3363430  54.3417817  58.2663936
  31.9787734  55.3585853  57.3470078  23.2070441  54.1497869  44.1231457
  24.1529546  54.0204077  44.1919875  22.8284686  53.4112531  44.6000885
  23.0909134  58.2015615  65.5832114  24.0112143  58.3794214  65.7772160
  23.0558717  57.2571661  65.4311813  21.3913358  52.0747846  44.0586342
  20.4844814  51.7780958  44.1349056  21.6689339  51.7777664  43.1920628
  12.3091299  53.3954209  54.5085388  11.9894083  52.5419517  54.2159762
  11.7624727  53.6102787  55.2643356  16.0871206  56.1116650  58.2254895
  16.3057216  57.0433758  58.2442929  16.4996980  55.7524624  59.0109699
  23.0075424  46.6184735  50.2130583  22.1976152  46.2731820  50.5885829
  23.6959841  46.3092279  50.8018195  24.9365972  45.6962782  51.8354880
  25.4897011  46.1158235  52.4944903  25.1736059  44.7698530  51.8777836
  20.9599072  51.6849856  67.6157644  20.8595799  52.6344213  67.5469735
  20.7420614  51.3568095  66.7433714  20.1612143  48.9334781  44.1998321
  21.0231307  49.2589679  44.4594138  20.3462487  48.1466277  43.6871387
  12.1779559  57.0157120  56.4778510  11.4843030  56.6011073  55.9648464
  12.9252550  57.0577657  55.8811929  28.3144779  47.8063307  51.3433544
  27.7343449  48.4648111  50.9611597  28.0480712  46.9840652  50.9320962
  26.7648346  47.2068365  53.5454864  27.2648124  47.3184899  52.7369183
  27.4083954  46.9029418  54.1855673  20.8230342  55.1146995  66.4322705
  20.3397423  55.9147355  66.6386594  20.9091281  55.1254939  65.4790149
  14.0916301  56.9475374  54.3544525  14.0686989  57.0463062  53.4026408
  14.4016938  57.7940525  54.6761691  16.7503679  59.0051529  58.4691139
  17.7046933  58.9735472  58.4021071  16.5516203  58.5442153  59.2841365
  17.3403061  57.5752645  61.0361937  18.1595950  58.0696724  61.0596774
  17.6139869  56.6584613  61.0079504  27.0969657  49.9663398  50.3989892
  26.2095513  50.2513048  50.1810087  27.5123647  49.8057161  49.5517169
  15.1053908  64.5471149  55.4861337  14.9708376  63.7871550  54.9199335
  14.6885970  65.2712049  55.0190126  26.2412871  59.7308072  44.4937912
  26.9448721  59.9358075  45.1095568  25.5175520  60.2984834  44.7586996
  27.0710681  55.4817934  50.6140183  27.0145883  55.9386485  49.7747815
  27.6239024  54.7208618  50.4363025  30.8815487  51.2707665  51.4390302
  30.6252421  50.8704301  52.2698510  30.2568355  51.9851459  51.3140441
  18.2623034  65.4440466  55.6979780  18.1455418  66.3885898  55.5958470
  17.4415480  65.1414027  56.0865579  28.1499568  60.1690601  46.5436372
  28.9845172  59.7371800  46.3613847  27.9883911  59.9972615  47.4713267
  27.8045461  56.6722715  47.9092712  27.7494264  56.5066986  46.9681156
  27.1791516  57.3798748  48.0654901  12.5937976  51.9090779  61.7354134
  13.2396839  51.3989733  62.2241359  12.3855127  52.6459461  62.3097559
  25.1191368  58.9771627  67.2346274  25.9882527  59.1512279  66.8732909
  24.6398119  59.7966043  67.1122004  21.1141586  46.1730824  47.4878030
  21.1020256  47.1172664  47.6446301  22.0065008  45.9900969  47.1937491
  19.2877548  66.0968728  58.9135708  20.1904795  66.1292338  59.2302203
  19.0614918  65.1669179  58.9282044  21.0431150  64.8499714  55.5745787
  20.0926781  64.8501576  55.4610159  21.3463636  64.1032449  55.0581821
  16.9335467  49.0558396  65.8329148  17.7966928  48.6995201  66.0432473
  16.3600877  48.7172291  66.5204552  33.5873550  70.6387681  56.5753074
  33.2492061  70.5228745  55.6873609  34.4563318  70.2378846  56.5554080
  29.4460365  72.4923157  52.5649965  28.8825231  72.4013094  51.7966253
  29.3312760  71.6723062  53.0452457  26.9924797  73.9874349  55.4034185
  27.7846089  73.6465173  54.9880485  27.2321448  74.0969324  56.3236339
  28.9515551  73.2483262  48.2751564  29.7246427  72.7012249  48.1364440
  29.3040950  74.1127511  48.4866025  30.7900594  74.5759644  61.4818463
  30.4990460  75.4805275  61.3665130  31.4257578  74.6176172  62.1962533
  31.7156801  71.9536493  58.0719823  32.3120373  71.7292515  57.3576786
  31.7731772  71.2121238  58.6745271  31.2881829  69.4075928  45.9070014
  31.5407350  68.8857449  45.1453477  30.3506388  69.2442074  46.0096698
  31.0078118  71.3104034  48.1094389  30.8914376  70.6348937  48.7775473
  31.1180378  70.8236408  47.2926542  33.3509659  70.7714181  51.8141078
  32.9867866  70.2444802  52.5254000  34.2076775  70.3812650  51.6407564
  32.9915146  65.8004081  46.8102427  33.1589548  66.6684317  47.1772898
  32.8012315  65.9631363  45.8863716  35.7490479  74.2621060  58.4768257
  35.4491202  75.1646099  58.3684064  35.4041538  73.9953243  59.3289410
  29.2002960  70.7134857  54.5104961  28.2753457  70.5811071  54.7182653
  29.4487374  71.4929076  55.0074904  32.9704367  68.2561738  47.7949094
  32.8503992  68.7018789  48.6334574  32.2756955  68.6047056  47.2362632
  26.5611771  70.3568130  55.3448751  26.6904153  70.6102609  56.2588162
  25.8809223  70.9495838  55.0253406  30.7311259  81.0265380  51.4439225
  30.6535288  81.9773205  51.5227705  30.1272902  80.6811253  52.1014151
  31.4774861  71.0078699  63.6618559  32.2189545  71.5463743  63.3853382
  30.7711846  71.6344988  63.8190110  33.3061271  68.0880446  59.6324277
  34.1522466  68.5119860  59.7758926  33.2459908  67.4314070  60.3262840
  37.2759015  73.7109030  56.0143009  36.6467878  73.8754744  55.3119077
  36.8884677  74.1250640  56.7853973  32.8286977  73.4483438  53.2793094
  33.2925323  73.7271141  52.4897717  32.5643775  72.5466883  53.0966185
  29.7211058  72.9954920  56.2172857  30.2912415  73.4242188  55.5790342
  30.3119170  72.7137504  56.9157043  31.7655863  69.5706590  50.0882659
  32.4679906  70.0227634  50.5556586  31.4336492  68.9290409  50.7162552
  30.2136225  68.1618347  64.4633869  29.5834885  68.8434628  64.6969265
  30.1072312  68.0501429  63.5187007  25.5081197  67.8290143  55.3899793
  24.7180251  68.0847672  54.9139903  25.9992444  68.6438481  55.4951833
  39.5245007  75.1695382  58.1405074  40.3462450  74.7675570  57.8587755
  39.5207409  75.0663616  59.0921189  27.4595942  68.1934722  52.3483270
  26.6627106  68.3053417  52.8666765  27.2321535  68.5321375  51.4824160
  33.2901610  74.7179426  60.2965784  33.3546043  75.1799833  61.1323956
  32.5812534  74.0876790  60.4248094  23.7918900  68.0820634  57.8214784
  24.0426938  68.9667643  58.0872360  24.3278448  67.9025235  57.0489875
  33.0049628  76.3847533  50.1644764  32.8695302  77.2299069  50.5929612
  33.5459440  76.5866811  49.4010698  29.4916967  62.4639113  66.8259120
  29.0983913  61.9105311  67.5006764  30.3083108  62.7749691  67.2165637
  26.4579025  73.9022971  50.7372690  26.9703546  74.6966221  50.8878254
  27.1101738  73.2049262  50.6706291  28.2673910  77.0188727  52.8195443
  28.4440538  77.9406692  52.6316427  29.0630743  76.7047147  53.2489823
  32.4084928  63.8796992  64.4179376  33.1494642  64.4804145  64.3383839
  32.6402851  63.1374630  63.8597419  27.5526266  69.0653359  62.6957606
  27.4379781  68.1638616  62.9964705  26.6970784  69.3117056  62.3442422
  34.6318104  77.0071100  64.2945107  34.1881958  76.2207478  63.9766011
  35.2935318  77.1950250  63.6288997  29.3905225  78.5366901  58.8205785
  29.9412650  78.4083965  58.0482779  28.5516701  78.8361790  58.4700678
  36.7299342  77.2873899  62.3226508  36.7117817  78.1082781  61.8306777
  37.6519262  77.1627975  62.5476649  33.1872396  74.8018029  63.1650016
  33.7200733  74.0406317  62.9349324  32.6586477  74.5091681  63.9074171
  36.3542091  59.9078095  58.6943658  36.0106361  60.7979737  58.6182769
  36.7221054  59.7179753  57.8313243  24.4227942  72.2311625  51.5132260
  25.2603164  72.6408634  51.2965968  24.6006210  71.2911068  51.4832454
  33.9039485  64.7436407  52.2601331  33.0481081  64.3543257  52.0806970
  34.3166437  64.8228368  51.4001117  35.4338632  62.2782750  56.6592891
  34.9303427  62.2412885  55.8460696  35.7269238  63.1875493  56.7189548
  31.6781517  62.3621480  55.6659073  32.5434514  62.1664288  55.3064962
  31.7459026  62.1331832  56.5928430  36.1078677  67.7713798  49.0275874
  35.8028813  68.0859947  49.8786017  37.0609119  67.8495218  49.0703207
  34.5525109  73.9304021  50.6768828  34.0246471  73.1956781  50.3642066
  34.0512612  74.7078698  50.4308797  29.2843837  64.5923688  53.0375440
  29.8587588  64.3698869  52.3048633  29.8714819  64.6612382  53.7904041
  29.6113424  66.6228149  47.0571325  28.7750736  66.9602835  47.3780600
  29.4718193  66.4877129  46.1198462  31.5866504  61.4664937  51.7650509
  30.9330917  61.1513954  51.1407124  31.5446978  60.8440677  52.4910332
  35.6039292  69.3538286  51.2200837  36.3511111  69.8659683  50.9107959
  35.8730882  69.0322339  52.0805231  24.4454113  69.5702341  52.1842994
  24.2478513  68.9771701  51.4594060  23.8900777  69.2654551  52.9018932
  32.4250837  69.4625447  54.3037587  32.4799446  68.5099284  54.2280063
  31.6142039  69.6184886  54.7878885  30.3643197  68.0802507  52.0627966
  29.5511062  68.3796677  52.4693158  30.8602191  67.6858196  52.7802448
  32.5151774  78.0760264  53.9962230  32.4727953  78.3021110  53.0670762
  33.4314473  77.8423638  54.1448031  29.8557271  65.6520862  57.6789201
  30.4956651  65.5109622  56.9812164  29.0234802  65.3655376  57.3027802
  30.6317575  74.9523293  53.7924193  31.4258174  74.4573613  53.5906768
  29.9209268  74.4241156  53.4291899  35.4512420  77.3341388  58.1436561
  35.5049442  77.9032325  58.9114276  34.5827201  77.5043273  57.7790598
  26.9400339  69.0966375  49.8683946  26.0097927  69.0350830  50.0853908
  27.0357811  68.5742327  49.0720587  26.8585888  65.6221187  52.4562187
  27.1192705  66.5366521  52.3471348  27.6803060  65.1545630  52.6058800
  28.3310813  67.0358945  59.6261012  29.0033866  66.8276307  58.9773661
  27.5040600  66.8381031  59.1866244  34.2336385  63.6620886  61.6426673
  33.5864300  64.3610835  61.5491149  35.0037400  64.0957029  62.0102921
  34.4100519  71.5001650  59.7023492  35.3392579  71.6512810  59.5292460
  33.9891549  71.5885671  58.8472139  33.2088851  75.5252315  57.4722030
  33.0699937  75.1571099  58.3447968  32.4203447  76.0399954  57.3005988
  33.8037003  80.6261411  48.8147567  33.9788759  80.1549455  49.6293189
  33.1169791  81.2527178  49.0428827  34.7594066  74.9033918  54.8610868
  34.4243899  74.8634688  55.7568518  34.2598012  74.2378633  54.3881278
  28.7338310  70.3101548  60.3863449  28.5958108  69.5781786  60.9874988
  29.6443234  70.2210448  60.1047637  31.3620611  70.0221507  59.8747129
  32.0720230  69.3814699  59.8333747  31.3189919  70.2734402  60.7973309
  39.3507390  76.9588860  62.7953708  39.2919936  76.2748080  62.1284291
  39.7526908  77.7007850  62.3434334  30.0749545  67.0086725  61.6942768
  29.5386902  66.5577463  62.3464364  29.4866253  67.1432634  60.9513232
  28.3698088  83.7750774  55.5887427  28.6094687  84.4069298  56.2666445
  27.5267285  83.4238814  55.8752786  29.4851804  66.4675376  44.2569232
  28.6081270  66.3464177  43.8931478  29.9609557  65.6761454  44.0048120
  39.3524797  74.9228444  61.0267688  38.4651576  74.5854366  61.1494086
  39.9223348  74.1911475  61.2636453  21.0053944  71.2552536  54.3510739
  21.6924984  70.9414266  53.7631754  20.8502073  72.1593901  54.0777990
  25.8088666  66.1442732  58.7795763  25.7246855  65.5368402  58.0446173
  24.9871373  66.6351751  58.7805259  32.8825950  79.5829897  57.9928931
  32.8096122  80.3884868  58.5048235  32.4403343  79.7821862  57.1676952
  32.6715730  78.8201667  51.5031752  31.8883252  79.3623347  51.5969977
  33.3708475  79.3375646  51.9025993  35.3424634  79.4816731  60.1487089
  36.0552606  80.1164195  60.0762991  34.8514662  79.5780597  59.3327091
  32.5647349  66.7713679  53.8737642  32.1945136  66.2184719  54.5618548
  33.0606441  66.1671812  53.3212642  30.3936547  77.2311174  60.9692660
  31.0946007  77.8647657  61.1222054  29.9231662  77.5725906  60.2088299
  35.1545007  79.8215475  52.8973381  35.3367402  79.0037131  53.3601133
  35.9777993  80.0383167  52.4598271  35.4887173  78.7483660  50.1588429
  36.0174939  78.2376114  49.5458591  35.7515392  78.4326190  51.0233962
  25.9904265  76.7647529  57.9023763  26.5757702  76.0191217  58.0351667
  25.7929104  77.0751486  58.7860427  28.8442921  79.7998776  52.9186205
  28.1753296  80.2844904  52.4350245  28.7055790  80.0467997  53.8329584
  20.5821920  69.3353129  56.6228206  20.6206020  68.8016720  57.4165324
  20.0762213  68.8088335  56.0039183  32.9848189  81.8342520  59.5168864
  33.5366497  81.9974141  60.2817949  33.3254383  82.4246958  58.8448888
  27.9612682  64.1817670  60.1190748  28.0254009  65.0432501  59.7068146
  27.8979803  63.5691671  59.3863107  27.4364955  66.2540802  63.7663783
  28.0636994  65.8717880  64.3801307  26.5792874  66.0355004  64.1319475
  37.8359064  76.6603777  65.3717518  38.3798968  77.2733736  64.8772473
  37.2545908  77.2183356  65.8884531  24.2130498  68.0617231  49.6982137
  24.5083939  67.1527910  49.6449191  23.3118534  68.0404971  49.3763140
  36.1216577  79.7824496  56.5032546  35.9967716  78.9814235  55.9943491
  36.7795668  80.2770689  56.0146516  27.7424745  66.1373228  55.6809686
  27.0211331  66.7509196  55.5417159  28.5318001  66.6730993  55.6026332
  38.1851485  77.5833516  58.1312096  37.2381820  77.4638867  58.0590423
  38.5334258  76.6956014  58.2138357  30.5451058  63.4727655  61.9550338
  31.0685460  63.7189951  62.7176647  30.3263392  64.3047689  61.5353475
  25.9418339  65.7431329  49.8221463  25.6131045  64.8628708  49.6396569
  26.2957710  65.6878998  50.7097852  35.1897918  77.3786232  54.3316448
  35.0422881  76.4502939  54.5124018  36.0151412  77.4006323  53.8473523
  29.0560162  66.0304299  50.1896940  29.3956235  66.5590220  49.4675549
  29.5032283  66.3684705  50.9655507  31.7503603  64.4141350  59.6400008
  31.4100424  63.6149163  60.0420688  31.0442610  64.7143060  59.0676842
  32.4020075  61.4990662  58.0927331  33.2246144  61.0251140  57.9706222
  32.6458139  62.2781146  58.5926018  31.0428310  64.5278920  48.3890233
  31.7636672  64.9060173  47.8853950  30.4193614  65.2467797  48.4925211
  35.1859433  65.2324069  49.3248565  35.4023047  66.1148707  49.0237394
  34.7053500  64.8410283  48.5954207  29.9258654  68.1909783  55.9019310
  29.7803235  68.5050086  56.7943591  29.4483858  68.8094683  55.3490209
  31.7855037  65.1812331  55.9500200  31.7716606  64.2853424  55.6132497
  32.5027465  65.1882994  56.5838486  33.6381167  65.6149671  57.9953327
  33.3798945  66.5366742  57.9937657  33.1066208  65.2180105  58.6853791
  24.4004316  70.7315127  58.8406971  23.8557784  71.5074935  58.9727245
  25.2783666  71.0785932  58.6826093  31.1891933  64.0626711  51.2187770
  31.3107844  63.1343357  51.4178657  30.8993975  64.0765397  50.3066085
  25.1870338  69.8585023  61.7337128  24.4452074  70.0067659  62.3201758
  24.8663082  70.1193289  60.8703877  33.1314001  79.4001002  61.5317518
  33.4401127  79.1550148  62.4040218  33.9289483  79.6047640  61.0436388
  33.1534613  81.5538911  53.7622895  32.7139603  81.0615290  54.4555751
  33.9042730  81.0111879  53.5214970  25.6326952  77.7450452  53.7647523
  26.4584972  77.4454224  53.3846166  25.2821004  76.9758075  54.2137311
  30.6008485  77.0976920  55.8345196  29.9788494  76.4347625  55.5347424
  31.2713352  77.1238052  55.1518844  23.8335557  75.6636779  54.7236456
  22.9967465  75.2358953  54.5420457  23.8059202  75.8569222  55.6607247
  30.6733012  65.5758708  65.4277702  30.7221168  66.4520831  65.0455472
  31.2155526  65.0336101  64.8549345  41.1587858  76.1199832  64.7078839
  40.3683402  76.1023970  64.1683339  40.9221213  76.6588125  65.4627876
  30.1621992  75.6480844  49.3103657  30.3110112  76.3316308  48.6570330
  30.9688435  75.6285934  49.8253112  32.9032301  66.3290081  62.1824061
  32.0335610  66.6223647  61.9106649  33.1391781  66.9130526  62.9031325
  42.7803930  75.3889239  62.2653589  42.4888738  75.7519220  63.1017050
  42.1676061  74.6756248  62.0866921  27.9174625  71.6746021  50.3164726
  27.6720667  70.7708351  50.5144936  28.0870539  71.6763172  49.3744204
  35.6071335  62.5469698  59.6989481  36.1253278  63.2830725  59.3735970
  35.2526467  62.8533691  60.5336240  27.1870272  67.4074379  47.8150887
  26.4939517  67.4818734  47.1590923  26.9422024  66.6434722  48.3372404
  33.6617397  78.1428974  46.7815404  33.0891364  78.7619161  46.3285876
  34.2350191  78.6928336  47.3155326  33.9302888  73.5307533  65.5832114
  34.8505898  73.7086132  65.7772160  33.8952471  72.5863578  65.4311813
  32.2307113  67.4039763  44.0586342  31.3238568  67.1072876  44.1349056
  32.5083094  67.1069581  43.1920628  23.1485053  68.7246127  54.5085388
  22.8287838  67.8711435  54.2159762  22.6018481  68.9394705  55.2643356
  26.9264961  71.4408568  58.2254895  27.1450971  72.3725675  58.2442929
  27.3390735  71.0816542  59.0109699  31.7992826  67.0141773  67.6157644
  31.6989553  67.9636130  67.5469735  31.5814368  66.6860012  66.7433714
  31.0005897  64.2626698  44.1998321  31.8625061  64.5881597  44.4594138
  31.1856242  63.4758194  43.6871387  23.0173313  72.3449038  56.4778510
  22.3236785  71.9302991  55.9648464  23.7646304  72.3869575  55.8811929
  31.6624096  70.4438912  66.4322705  31.1791178  71.2439272  66.6386594
  31.7485035  70.4546857  65.4790149  24.9310056  72.2767292  54.3544525
  24.9080744  72.3754979  53.4026408  25.2410692  73.1232443  54.6761691
  27.5897434  74.3343447  58.4691139  28.5440687  74.3027389  58.4021071
  27.3909957  73.8734071  59.2841365  28.1796816  72.9044563  61.0361937
  28.9989705  73.3988642  61.0596774  28.4533623  71.9876531  61.0079504
  25.9447662  79.8763066  55.4861337  25.8102130  79.1163467  54.9199335
  25.5279725  80.6003966  55.0190126  29.1016788  80.7732383  55.6979780
  28.9849172  81.7177816  55.5958470  28.2809235  80.4705945  56.0865579
  23.4331730  67.2382697  61.7354134  24.0790594  66.7281651  62.2241359
  23.2248881  67.9751378  62.3097559  31.9535340  61.5022741  47.4878030
  31.9414010  62.4464581  47.6446301  32.8458762  61.3192887  47.1937491
  30.1271302  81.4260645  58.9135708  31.0298549  81.4584256  59.2302203
  29.9008672  80.4961096  58.9282044  31.8824904  80.1791632  55.5745787
  30.9320535  80.1793493  55.4610159  32.1857391  79.4324366  55.0581821
  27.7729221  64.3850314  65.8329148  28.6360683  64.0287119  66.0432473
  27.1994632  64.0464209  66.5204552  47.6177598  86.0152170  56.6391549
  48.2556008  85.8958918  55.9354889  47.4998441  86.9633014  56.6979501
  44.4267304  85.9679598  56.5753074  44.0885816  85.8520663  55.6873609
  45.2957072  85.5670763  56.5554080  40.2854120  87.8215075  52.5649965
  39.7218985  87.7305012  51.7966253  40.1706515  87.0014979  53.0452457
  44.9087087  87.1214450  62.5339279  44.8975728  86.7267248  61.6619783
  45.0707727  86.3880523  63.1273051  37.8318552  89.3166266  55.4034185
  38.6239844  88.9757091  54.9880485  38.0715202  89.4261241  56.3236339
  45.8653679  91.4886042  47.8764430  45.2141658  92.0740123  47.4898443
  46.6598041  92.0192237  47.9359467  39.7909306  88.5775180  48.2751564
  40.5640182  88.0304167  48.1364440  40.1434705  89.4419429  48.4866025
  41.6294348  89.9051562  61.4818463  41.3384214  90.8097193  61.3665130
  42.2651333  89.9468090  62.1962533  42.5550555  87.2828410  58.0719823
  43.1514127  87.0584433  57.3576786  42.6125527  86.5413156  58.6745271
  41.8471872  86.6395952  48.1094389  41.7308130  85.9640855  48.7775473
  41.9574132  86.1528326  47.2926542  46.5884233  89.5912977  58.4768257
  46.2884957  90.4938016  58.3684064  46.2435293  89.3245161  59.3289410
  40.0396715  86.0426774  54.5104961  39.1147211  85.9102988  54.7182653
  40.2881128  86.8220994  55.0074904  49.9881377  82.1095518  56.1565694
  49.0798255  82.0410926  55.8624455  49.9368973  82.5867463  56.9847520
  37.4005526  85.6860048  55.3448751  37.5297907  85.9394527  56.2588162
  36.7202977  86.2787756  55.0253406  41.5705013  96.3557298  51.4439225
  41.4929043  97.3065123  51.5227705  40.9666657  96.0103170  52.1014151
  44.0622243  83.5285163  64.1000592  43.2855577  84.0879083  64.0903456
  44.7012806  84.0141946  64.6215462  42.3168615  86.3370617  63.6618559
  43.0583300  86.8755661  63.3853382  41.6105601  86.9636905  63.8190110
  47.7923955  88.4799757  62.2590720  48.2007311  88.0382168  61.5145352
  47.0701216  87.9052385  62.5124913  44.1455025  83.4172364  59.6324277
  44.9916220  83.8411777  59.7758926  44.0853663  82.7605988  60.3262840
  48.1152770  89.0400948  56.0143009  47.4861632  89.2046662  55.3119077
  47.7278432  89.4542557  56.7853973  51.9942001  89.9755385  53.3687373
  51.3093040  90.3554287  52.8184406  52.0785851  90.5850712  54.1019321
  47.2954470  81.0776732  61.2905451  47.0515402  81.8318793  60.7539726
  47.5714401  81.4562080  62.1252698  49.2492933  87.6215345  59.9682716
  49.4609828  88.2647104  59.2917097  49.2022681  86.7877661  59.5004646
  46.8519162  80.2333165  56.8719288  45.9903641  80.5314419  57.1636026
  46.8781597  80.4503564  55.9400321  43.6680731  88.7775356  53.2793094
  44.1319077  89.0563059  52.4897717  43.4037530  87.8758800  53.0966185
  40.5604813  88.3246837  56.2172857  41.1306170  88.7534106  55.5790342
  41.1512924  88.0429422  56.9157043  41.0529979  83.4910265  64.4633869
  40.4228640  84.1726546  64.6969265  40.9466067  83.3793346  63.5187007
  36.3474951  83.1582061  55.3899793  35.5574005  83.4139589  54.9139903
  36.8386199  83.9730399  55.4951833  50.3638761  90.4987300  58.1405074
  51.1856205  90.0967487  57.8587755  50.3601164  90.3955534  59.0921189
  44.1295364  90.0471343  60.2965784  44.1939797  90.5091750  61.1323956
  43.4206288  89.4168708  60.4248094  34.6312654  83.4112551  57.8214784
  34.8820693  84.2959561  58.0872360  35.1672203  83.2317153  57.0489875
  58.4544754  86.8426048  54.4890045  57.7008462  86.2733446  54.3334050
  58.5892295  86.8088713  55.4360680  43.8443382  91.7139451  50.1644764
  43.7089057  92.5590986  50.5929612  44.3853195  91.9158728  49.4010698
  40.3310722  77.7931031  66.8259120  39.9377667  77.2397229  67.5006764
  41.1476862  78.1041609  67.2165637  37.2972780  89.2314889  50.7372690
  37.8097300  90.0258139  50.8878254  37.9495492  88.5341179  50.6706291
  39.1067664  92.3480645  52.8195443  39.2834293  93.2698610  52.6316427
  39.9024498  92.0339064  53.2489823  43.2478683  79.2088910  64.4179376
  43.9888396  79.8096063  64.3383839  43.4796606  78.4666547  63.8597419
  38.3920021  84.3945277  62.6957606  38.2773536  83.4930534  62.9964705
  37.5364539  84.6408974  62.3442422  45.4711859  92.3363017  64.2945107
  45.0275713  91.5499396  63.9766011  46.1329072  92.5242168  63.6288997
  40.2298980  93.8658819  58.8205785  40.7806405  93.7375882  58.0482779
  39.3910456  94.1653708  58.4700678  47.5693097  92.6165817  62.3226508
  47.5511572  93.4374698  61.8306777  48.4913017  92.4919892  62.5476649
  44.0266151  90.1309947  63.1650016  44.5594488  89.3698235  62.9349324
  43.4980232  89.8383598  63.9074171  35.2621696  87.5603543  51.5132260
  36.0996918  87.9700551  51.2965968  35.4399964  86.6202985  51.4832454
  50.3711709  87.4544960  55.7935875  49.7135384  88.1444221  55.8816003
  51.1752109  87.8441392  56.1369861  46.4439543  95.7873657  46.6000487
  45.7701241  96.0905353  47.2085445  46.8305364  96.5902737  46.2505944
  45.6597999  83.2838788  56.0898157  44.7420561  83.5053735  55.9319845
  46.0758143  83.3585098  55.2309864  49.9478964  90.7895334  51.9718959
  49.4941292  89.9486244  52.0284149  49.3172931  91.4256732  52.3093739
  48.3911904  92.6271830  52.9068777  48.6834878  93.1876888  52.1881143
  48.9010524  92.9200391  53.6621936  35.2847867  84.8994258  52.1842994
  35.0872267  84.3063619  51.4594060  34.7294531  84.5946469  52.9018932
  44.4135785  88.7197488  45.5415870  43.9755215  88.0033347  45.0821507
  45.1546226  88.9473603  44.9800961  43.3545529  93.4052182  53.9962230
  43.3121708  93.6313028  53.0670762  44.2708228  93.1715556  54.1448031
  46.8011163  83.8736249  60.8942859  47.1560550  84.1007722  61.7537325
  47.4483294  84.2054626  60.2720115  40.6951026  80.9812780  57.6789201
  41.3350405  80.8401539  56.9812164  39.8628556  80.6947294  57.3027802
  52.5578279  89.0631212  56.6103460  52.9914786  88.9706501  57.4586514
  53.2709860  89.0388712  55.9723476  41.4711330  90.2815211  53.7924193
  42.2651928  89.7865531  53.5906768  40.7603022  89.7533074  53.4291899
  46.2906174  92.6633306  58.1436561  46.3443196  93.2324242  58.9114276
  45.4220956  92.8335191  57.7790598  37.6979642  80.9513105  52.4562187
  37.9586460  81.8658438  52.3471348  38.5196815  80.4837548  52.6058800
  39.1704568  82.3650862  59.6261012  39.8427621  82.1568224  58.9773661
  38.3434354  82.1672948  59.1866244  53.4193829  89.1054913  59.1436345
  53.6129719  90.0100723  59.3895620  53.3194447  88.6462332  59.9774930
  45.0730140  78.9912803  61.6426673  44.4258055  79.6902753  61.5491149
  45.8431155  79.4248947  62.0102921  48.4808937  89.2561655  64.7177226
  48.3294444  89.0272207  63.8007310  48.4713617  90.2132257  64.7308571
  45.2494274  86.8293568  59.7023492  46.1786334  86.9804728  59.5292460
  44.8285304  86.9177589  58.8472139  44.0482606  90.8544233  57.4722030
  43.9093691  90.4863017  58.3447968  43.2597202  91.3691872  57.3005988
  44.6430758  95.9553329  48.8147567  44.8182513  95.4841372  49.6293189
  43.9563546  96.5819095  49.0428827  45.5987821  90.2325835  54.8610868
  45.2637653  90.1926605  55.7568518  45.0991767  89.5670551  54.3881278
  39.5732065  85.6393465  60.3863449  39.4351863  84.9073704  60.9874988
  40.4836988  85.5502365  60.1047637  42.2014365  85.3513425  59.8747129
  42.9113984  84.7106617  59.8333747  42.1583674  85.6026319  60.7973309
  50.1901144  92.2880778  62.7953708  50.1313690  91.6039998  62.1284291
  50.5920663  93.0299768  62.3434334  40.9143299  82.3378642  61.6942768
  40.3780656  81.8869381  62.3464364  40.3260008  82.4724551  60.9513232
  39.2091843  99.1042692  55.5887427  39.4488441  99.7361216  56.2666445
  38.3661039  98.7530732  55.8752786  50.1918551  90.2520362  61.0267688
  49.3045330  89.9146284  61.1494086  50.7617102  89.5203393  61.2636453
  31.8447699  86.5844454  54.3510739  32.5318738  86.2706184  53.7631754
  31.6895827  87.4885818  54.0777990  36.6482421  81.4734650  58.7795763
  36.5640609  80.8660320  58.0446173  35.8265127  81.9643668  58.7805259
  43.7219705  94.9121814  57.9928931  43.6489876  95.7176786  58.5048235
  43.2797098  95.1113780  57.1676952  43.5109484  94.1493584  51.5031752
  42.7277006  94.6915264  51.5969977  44.2102230  94.6667564  51.9025993
  46.1818388  94.8108648  60.1487089  46.8946361  95.4456113  60.0762991
  45.6908417  94.9072514  59.3327091  41.2330302  92.5603092  60.9692660
  41.9339761  93.1939575  61.1222054  40.7625417  92.9017823  60.2088299
  49.3584698  90.9021041  49.2540567  49.6344542  90.7877636  50.1634441
  48.4889196  90.5038526  49.2152740  49.0331588  85.1147699  58.7945211
  48.3803038  85.3623607  58.1397663  49.4111968  84.3011837  58.4607688
  45.9938762  95.1507392  52.8973381  46.1761156  94.3329048  53.3601133
  46.8171748  95.3675085  52.4598271  46.3280927  94.0775577  50.1588429
  46.8568694  93.5668032  49.5458591  46.5909147  93.7618108  51.0233962
  45.0819161  85.8567510  65.2811248  44.4059798  85.7561640  65.9513623
  45.9046795  85.7006724  65.7447245  36.8298020  92.0939447  57.9023763
  37.4151457  91.3483135  58.0351667  36.6322858  92.4043403  58.7860427
  39.6836675  95.1290694  52.9186205  39.0147050  95.6136822  52.4350245
  39.5449545  95.3759915  53.8329584  31.4215675  84.6645047  56.6228206
  31.4599774  84.1308638  57.4165324  30.9155967  84.1380252  56.0039183
  43.8241944  97.1634438  59.5168864  44.3760252  97.3266059  60.2817949
  44.1648137  97.7538875  58.8448888  38.8006437  79.5109587  60.1190748
  38.8647763  80.3724418  59.7068146  38.7373557  78.8983589  59.3863107
  38.2758709  81.5832720  63.7663783  38.9030748  81.2009797  64.3801307
  37.4186628  81.3646922  64.1319475  48.6752818  91.9895695  65.3717518
  49.2192722  92.6025653  64.8772473  48.0939663  92.5475274  65.8884531
  46.9610331  95.1116413  56.5032546  46.8361470  94.3106153  55.9943491
  47.6189422  95.6062607  56.0146516  38.5818499  81.4665146  55.6809686
  37.8605085  82.0801113  55.5417159  39.3711755  82.0022911  55.6026332
  49.0245239  92.9125433  58.1312096  48.0775575  92.7930784  58.0590423
  49.3728013  92.0247931  58.2138357  41.3844813  78.8019572  61.9550338
  41.9079215  79.0481869  62.7176647  41.1657146  79.6339607  61.5353475
  46.0291673  92.7078149  54.3316448  45.8816635  91.7794857  54.5124018
  46.8545166  92.7298240  53.8473523  49.6325795  93.5306708  55.4181321
  50.5572342  93.3249570  55.2805772  49.4641098  93.2823109  56.3270662
  42.5897358  79.7433267  59.6400008  42.2494178  78.9441080  60.0420688
  41.8836364  80.0434978  59.0676842  43.2413830  76.8282580  58.0927331
  44.0639899  76.3543058  57.9706222  43.4851893  77.6073063  58.5926018
  40.7652408  83.5201700  55.9019310  40.6196989  83.8342003  56.7943591
  40.2877612  84.1386601  55.3490209  44.4774922  80.9441589  57.9953327
  44.2192700  81.8658659  57.9937657  43.9459962  80.5472023  58.6853791
  49.4221111  94.0492376  50.7743412  49.5957988  93.4838798  50.0217265
  49.9150002  94.8493271  50.5922902  35.2398071  86.0607045  58.8406971
  34.6951539  86.8366853  58.9727245  36.1177420  86.4077849  58.6826093
  50.4096283  93.3659140  47.8740311  51.1047188  93.9865833  48.0927625
  50.7519433  92.5154491  48.1492688  36.0264092  85.1876941  61.7337128
  35.2845828  85.3359576  62.3201758  35.7056837  85.4485207  60.8703877
  52.3087706  90.8158846  49.4027641  52.8339030  91.1546118  48.6776961
  52.2210059  89.8805861  49.2190776  43.9707755  94.7292919  61.5317518
  44.2794882  94.4842066  62.4040218  44.7683237  94.9339558  61.0436388
  43.9928367  96.8830829  53.7622895  43.5533357  96.3907208  54.4555751
  44.7436484  96.3403797  53.5214970  36.4720706  93.0742370  53.7647523
  37.2978726  92.7746142  53.3846166  36.1214758  92.3049992  54.2137311
  41.4402239  92.4268838  55.8345196  40.8182249  91.7639543  55.5347424
  42.1107106  92.4529970  55.1518844  34.6729311  90.9928696  54.7236456
  33.8361219  90.5650871  54.5420457  34.6452957  91.1861140  55.6607247
  41.5126767  80.9050626  65.4277702  41.5614922  81.7812749  65.0455472
  42.0549281  80.3628019  64.8549345  51.9981612  91.4491749  64.7078839
  51.2077156  91.4315888  64.1683339  51.7614967  91.9880043  65.4627876
  52.1179487  88.2984216  62.0211568  52.1677492  88.1334223  62.9627091
  52.0093411  87.4311475  61.6309449  41.0015746  90.9772761  49.3103657
  41.1503867  91.6608226  48.6570330  41.8082190  90.9577851  49.8253112
  49.4083250  84.2815144  63.3370875  50.3093113  84.1421608  63.0454872
  49.4831224  84.4469598  64.2769052  43.7426055  81.6581998  62.1824061
  42.8729365  81.9515564  61.9106649  43.9785536  82.2422443  62.9031325
  53.6197684  90.7181157  62.2653589  53.3282493  91.0811138  63.1017050
  53.0069816  90.0048165  62.0866921  54.8193367  88.2834037  54.7856160
  55.6540258  88.7223841  54.9493720  54.9552495  87.8072690  53.9664405
  51.8684873  85.8413772  60.7333647  52.3438994  86.0341418  59.9252499
  50.9450438  85.8972958  60.4877031  38.7568379  87.0037939  50.3164726
  38.5114421  86.1000269  50.5144936  38.9264294  87.0055089  49.3744204
  44.5011152  93.4720892  46.7815404  43.9285119  94.0911079  46.3285876
  45.0743945  94.0220253  47.3155326  50.5686542  82.7179532  58.9661953
  51.5203964  82.8177630  58.9874177  50.3989992  81.9257800  59.4760037
  47.7208411  93.7558042  47.9123986  48.6539085  93.6903604  48.1156862
  47.6331624  94.5914309  47.4538519  53.0474619  85.9385652  58.0804253
  53.0150939  85.0001652  58.2663936  53.6575243  86.0169688  57.3470078
  53.1969108  82.7296695  58.1262536  52.6808156  81.9455152  57.9392465
  54.0809056  82.4015412  58.2909055  58.8651169  87.0001658  57.2210289
  59.5954558  86.7386947  57.7817993  58.2558115  86.2630380  57.2612357
  56.9466466  85.1409521  57.8184741  56.2199630  85.0065486  57.2101232
  56.5313753  85.4486350  58.6241459  44.7696643  88.8599451  65.5832114
  45.6899652  89.0378050  65.7772160  44.7346226  87.9155496  65.4311813
  33.9878808  84.0538044  54.5085388  33.6681592  83.2003353  54.2159762
  33.4412236  84.2686622  55.2643356  37.7658715  86.7700485  58.2254895
  37.9844725  87.7017593  58.2442929  38.1784489  86.4108460  59.0109699
  42.6386581  82.3433691  67.6157644  42.5383307  83.2928048  67.5469735
  42.4208123  82.0151930  66.7433714  33.8567068  87.6740956  56.4778510
  33.1630539  87.2594909  55.9648464  34.6040059  87.7161492  55.8811929
  42.5017851  85.7730830  66.4322705  42.0184932  86.5731190  66.6386594
  42.5878790  85.7838775  65.4790149  35.7703810  87.6059210  54.3544525
  35.7474498  87.7046897  53.4026408  36.0804447  88.4524360  54.6761691
  38.4291188  89.6635365  58.4691139  39.3834442  89.6319307  58.4021071
  38.2303712  89.2025988  59.2841365  39.0190570  88.2336481  61.0361937
  39.8383459  88.7280559  61.0596774  39.2927378  87.3168449  61.0079504
  36.7841417  95.2054984  55.4861337  36.6495885  94.4455385  54.9199335
  36.3673479  95.9295884  55.0190126  47.9200380  90.3891908  44.4937912
  48.6236230  90.5941910  45.1095568  47.1963029  90.9568670  44.7586996
  39.9410543  96.1024301  55.6979780  39.8242927  97.0469734  55.5958470
  39.1202989  95.7997863  56.0865579  49.8287077  90.8274437  46.5436372
  50.6632681  90.3955635  46.3613847  49.6671420  90.6556451  47.4713267
  34.2725484  82.5674615  61.7354134  34.9184348  82.0573568  62.2241359
  34.0642636  83.3043296  62.3097559  46.7978877  89.6355462  67.2346274
  47.6670036  89.8096114  66.8732909  46.3185628  90.4549879  67.1122004
  40.9665057  96.7552563  58.9135708  41.8692304  96.7876173  59.2302203
  40.7402427  95.8253014  58.9282044  42.7218659  95.5083550  55.5745787
  41.7714290  95.5085411  55.4610159  43.0251145  94.7616284  55.0581821
  38.6122975  79.7142232  65.8329148  39.4754437  79.3579036  66.0432473
  38.0388386  79.3756126  66.5204552  58.4571352 101.3444088  56.6391549
  59.0949762 101.2250835  55.9354889  58.3392195 102.2924932  56.6979501
  55.2661059 101.2971516  56.5753074  54.9279570 101.1812581  55.6873609
  56.1350827 100.8962681  56.5554080  51.1247874 103.1506992  52.5649965
  50.5612740 103.0596929  51.7966253  51.0100269 102.3306897  53.0452457
  55.7480842 102.4506368  62.5339279  55.7369482 102.0559166  61.6619783
  55.9101481 101.7172440  63.1273051  48.6712306 104.6458184  55.4034185
  49.4633598 104.3049009  54.9880485  48.9108956 104.7553159  56.3236339
  56.7047433 106.8177960  47.8764430  56.0535413 107.4032041  47.4898443
  57.4991796 107.3484155  47.9359467  50.6303060 103.9067097  48.2751564
  51.4033936 103.3596084  48.1364440  50.9828459 104.7711347  48.4866025
  52.4688103 105.2343480  61.4818463  52.1777969 106.1389110  61.3665130
  53.1045087 105.2760007  62.1962533  53.3944310 102.6120328  58.0719823
  53.9907882 102.3876351  57.3576786  53.4519281 101.8705074  58.6745271
  52.9669338 100.0659763  45.9070014  53.2194859  99.5441285  45.1453477
  52.0293897  99.9025909  46.0096698  58.0112621  99.0695542  53.7144757
  58.7975710  98.6514965  53.3635174  58.2751325  99.9741634  53.8826406
  58.1822698 104.5068392  48.4133414  57.5468531 104.5803019  49.1254319
  57.8520105 105.0961991  47.7352493  63.4121048  99.0070775  54.6177736
  64.1446220  98.4369992  54.8515565  62.6560404  98.6192375  55.0584241
  52.6865627 101.9687869  48.1094389  52.5701885 101.2932773  48.7775473
  52.7967887 101.4820243  47.2926542  55.0297168 101.4298016  51.8141078
  54.6655375 100.9028637  52.5254000  55.8864284 101.0396486  51.6407564
  60.9346468  92.7192349  59.0772344  60.6029793  93.5887760  58.8533559
  60.3392082  92.4028633  59.7566375  54.6702655  96.4587916  46.8102427
  54.8377057  97.3268153  47.1772898  54.4799824  96.6215198  45.8863716
  57.4277988 104.9204895  58.4768257  57.1278711 105.8229934  58.3684064
  57.0829047 104.6537078  59.3289410  50.8790469 101.3718692  54.5104961
  49.9540966 101.2394906  54.7182653  51.1274883 102.1512911  55.0074904
  60.8275132  97.4387435  56.1565694  59.9192009  97.3702844  55.8624455
  60.7762728  97.9159380  56.9847520  54.6491876  98.9145574  47.7949094
  54.5291501  99.3602624  48.6334574  53.9544464  99.2630891  47.2362632
  48.2399280 101.0151965  55.3448751  48.3691662 101.2686444  56.2588162
  47.5596732 101.6079673  55.0253406  52.4098768 111.6849215  51.4439225
  52.3322797 112.6357041  51.5227705  51.8060411 111.3395088  52.1014151
  54.9015997  98.8577081  64.1000592  54.1249332  99.4171001  64.0903456
  55.5406561  99.3433864  64.6215462  62.6936778  95.6403874  57.9343568
  62.0511158  95.9336407  57.2883363  62.1891707  95.5256794  58.7396765
  60.3476942  99.3867047  48.6229428  61.2594798  99.6194434  48.4477125
  59.8386589  99.9704091  48.0604506  53.1562370 101.6662534  63.6618559
  53.8977054 102.2047578  63.3853382  52.4499355 102.2928823  63.8190110
  58.6317709 103.8091675  62.2590720  59.0401065 103.3674085  61.5145352
  57.9094971 103.2344302  62.5124913  54.9848779  98.7464281  59.6324277
  55.8309975  99.1703695  59.7758926  54.9247417  98.0897906  60.3262840
  58.9546524 104.3692865  56.0143009  58.3255387 104.5338579  55.3119077
  58.5672186 104.7834475  56.7853973  62.8335756 105.3047303  53.3687373
  62.1486794 105.6846205  52.8184406  62.9179605 105.9142630  54.1019321
  58.1348225  96.4068650  61.2905451  57.8909157  97.1610710  60.7539726
  58.4108155  96.7853997  62.1252698  60.0886688 102.9507262  59.9682716
  60.3003583 103.5939022  59.2917097  60.0416436 102.1169579  59.5004646
  57.6912917  95.5625083  56.8719288  56.8297396  95.8606336  57.1636026
  57.7175351  95.7795482  55.9400321  54.5074486 104.1067273  53.2793094
  54.9712831 104.3854976  52.4897717  54.2431284 103.2050718  53.0966185
  51.3998567 103.6538755  56.2172857  51.9699924 104.0826023  55.5790342
  51.9906679 103.3721340  56.9157043  53.4443372 100.2290426  50.0882659
  54.1467415 100.6811469  50.5556586  53.1124001  99.5874245  50.7162552
  51.8923734  98.8202182  64.4633869  51.2622394  99.5018463  64.6969265
  51.7859821  98.7085264  63.5187007  47.1868706  98.4873978  55.3899793
  46.3967760  98.7431507  54.9139903  47.6779953  99.3022316  55.4951833
  61.2032516 105.8279218  58.1405074  62.0249959 105.4259405  57.8587755
  61.1994918 105.7247452  59.0921189  49.1383451  98.8518558  52.3483270
  48.3414615  98.9637252  52.8666765  48.9109044  99.1905210  51.4824160
  54.9689119 105.3763261  60.2965784  55.0333551 105.8383668  61.1323956
  54.2600043 104.7460626  60.4248094  45.4706409  98.7404469  57.8214784
  45.7214447  99.6251479  58.0872360  46.0065957  98.5609070  57.0489875
  69.2938509 102.1717966  54.4890045  68.5402217 101.6025364  54.3334050
  69.4286050 102.1380631  55.4360680  54.6837137 107.0431368  50.1644764
  54.5482811 107.8882904  50.5929612  55.2246949 107.2450646  49.4010698
  51.1704476  93.1222948  66.8259120  50.7771422  92.5689147  67.5006764
  51.9870617  93.4333527  67.2165637  48.1366534 104.5606806  50.7372690
  48.6491055 105.3550057  50.8878254  48.7889247 103.8633097  50.6706291
  49.9461419 107.6772563  52.8195443  50.1228047 108.5990527  52.6316427
  50.7418252 107.3630982  53.2489823  54.0872437  94.5380827  64.4179376
  54.8282151  95.1387980  64.3383839  54.3190360  93.7958465  63.8597419
  49.2313775  99.7237195  62.6957606  49.1167290  98.8222452  62.9964705
  48.3758293  99.9700891  62.3442422  56.3105613 107.6654935  64.2945107
  55.8669467 106.8791313  63.9766011  56.9722827 107.8534085  63.6288997
  51.0692734 109.1950736  58.8205785  51.6200159 109.0667800  58.0482779
  50.2304210 109.4945626  58.4700678  58.4086851 107.9457735  62.3226508
  58.3905326 108.7666616  61.8306777  59.3306771 107.8211810  62.5476649
  54.8659905 105.4601864  63.1650016  55.3988242 104.6990153  62.9349324
  54.3373986 105.1675516  63.9074171  58.0329600  90.5661930  58.6943658
  57.6893870  91.4563572  58.6182769  58.4008563  90.3763588  57.8313243
  46.1015451 102.8895461  51.5132260  46.9390673 103.2992469  51.2965968
  46.2793719 101.9494903  51.4832454  57.9979883 100.5570541  47.2016093
  57.4826506 101.3275146  47.4404480  57.7257191  99.8835678  47.8249154
  55.5826994  95.4020242  52.2601331  54.7268590  95.0127093  52.0806970
  55.9953946  95.4812203  51.4001117  57.1126141  92.9366585  56.6592891
  56.6090936  92.8996721  55.8460696  57.4056747  93.8459328  56.7189548
  53.3569026  93.0205315  55.6659073  54.2222023  92.8248124  55.3064962
  53.4246535  92.7915667  56.5928430  62.9714157 103.3102896  49.1369267
  62.1943600 102.9714056  48.6924429  63.6505638 103.3155519  48.4624232
  57.7866186  98.4297633  49.0275874  57.4816322  98.7443783  49.8786017
  58.7396628  98.5079053  49.0703207  56.2312618 104.5887857  50.6768828
  55.7033980 103.8540616  50.3642066  55.7300121 105.3662533  50.4308797
  61.2105464 102.7836877  55.7935875  60.5529138 103.4736139  55.8816003
  62.0145863 103.1733309  56.1369861  50.9631346  95.2507523  53.0375440
  51.5375097  95.0282705  52.3048633  51.5502328  95.3196218  53.7904041
  60.0210923 101.1381250  53.8439816  60.5342805 101.7711242  54.3461526
  60.6712147 100.5382445  53.4783176  51.2900933  97.2811984  47.0571325
  50.4538245  97.6186671  47.3780600  51.1505702  97.1460964  46.1198462
  53.2654013  92.1248772  51.7650509  52.6118426  91.8097789  51.1407124
  53.2234487  91.5024512  52.4910332  54.3765218 102.4068067  43.6803801
  53.4692280 102.1757321  43.8794950  54.8736250 101.6105686  43.8677783
  57.2833297 111.1165574  46.6000487  56.6094996 111.4197271  47.2085445
  57.6699119 111.9194655  46.2505944  56.4991754  98.6130706  56.0898157
  55.5814315  98.8345653  55.9319845  56.9151897  98.6877016  55.2309864
  57.2826801 100.0122121  51.2200837  58.0298620 100.5243518  50.9107959
  57.5518391  99.6906174  52.0805231  55.5553452 102.5080662  48.2027791
  54.6464671 102.2239695  48.3000261  55.5848535 102.9279740  47.3431098
  60.7872719 106.1187251  51.9718959  60.3335046 105.2778161  52.0284149
  60.1566686 106.7548650  52.3093739  59.7305639  97.0479237  53.2019626
  58.9928395  96.5356624  53.5329869  59.9832412  96.6079619  52.3902903
  59.2305658 107.9563748  52.9068777  59.5228633 108.5168805  52.1881143
  59.7404279 108.2492309  53.6621936  59.8317266  89.8255489  53.7961396
  60.1376143  88.9652853  53.5087311  60.5569871  90.4173110  53.5960390
  46.1241622 100.2286176  52.1842994  45.9266022  99.6355537  51.4594060
  45.5688286  99.9238386  52.9018932  54.1038346 100.1209283  54.3037587
  54.1586955  99.1683119  54.2280063  53.2929548 100.2768722  54.7878885
  55.2529539 104.0489406  45.5415870  54.8148969 103.3325265  45.0821507
  55.9939980 104.2765520  44.9800961  52.0430706  98.7386342  52.0627966
  51.2298571  99.0380513  52.4693158  52.5389700  98.3442031  52.7802448
  54.1939283 108.7344099  53.9962230  54.1515462 108.9604946  53.0670762
  55.1101982 108.5007474  54.1448031  57.6404917  99.2028167  60.8942859
  57.9954305  99.4299640  61.7537325  58.2877048  99.5346544  60.2720115
  63.3702654 102.3246603  51.5992188  63.2320553 102.5148199  50.6713378
  63.0138873 103.0865985  52.0560240  51.5344780  96.3104698  57.6789201
  52.1744160  96.1693457  56.9812164  50.7022311  96.0239211  57.3027802
  63.3972034 104.3923130  56.6103460  63.8308540 104.2998419  57.4586514
  64.1103614 104.3680630  55.9723476  52.3105084 105.6107128  53.7924193
  53.1045683 105.1157448  53.5906768  51.5996777 105.0824991  53.4291899
  57.1299929 107.9925224  58.1436561  57.1836951 108.5616160  58.9114276
  56.2614710 108.1627109  57.7790598  48.6187848  99.7550210  49.8683946
  47.6885436  99.6934665  50.0853908  48.7145320  99.2326163  49.0720587
  48.5373397  96.2805023  52.4562187  48.7980214  97.1950356  52.3471348
  49.3590569  95.8129465  52.6058800  50.0098322  97.6942780  59.6261012
  50.6821375  97.4860142  58.9773661  49.1828109  97.4964866  59.1866244
  64.2587583 104.4346830  59.1436345  64.4523473 105.3392641  59.3895620
  64.1588201 103.9754249  59.9774930  55.9123894  94.3204721  61.6426673
  55.2651809  95.0194671  61.5491149  56.6824909  94.7540865  62.0102921
  59.3202692 104.5853573  64.7177226  59.1688198 104.3564125  63.8007310
  59.3107371 105.5424174  64.7308571  56.0888028 102.1585486  59.7023492
  57.0180088 102.3096645  59.5292460  55.6679058 102.2469507  58.8472139
  54.8876360 106.1836150  57.4722030  54.7487446 105.8154935  58.3447968
  54.0990956 106.6983790  57.3005988  55.4824512 111.2845247  48.8147567
  55.6576268 110.8133290  49.6293189  54.7957300 111.9111013  49.0428827
  56.4381575 105.5617753  54.8610868  56.1031408 105.5218523  55.7568518
  55.9385521 104.8962469  54.3881278  50.4125819 100.9685383  60.3863449
  50.2745617 100.2365622  60.9874988  51.3230743 100.8794283  60.1047637
  59.3740767 102.9073787  45.1347927  58.7569938 102.1820615  45.0380980
  58.9057255 103.6683148  44.7915002  53.0408120 100.6805342  59.8747129
  53.7507738 100.0398534  59.8333747  52.9977428 100.9318237  60.7973309
  61.0294899 107.6172696  62.7953708  60.9707445 106.9331916  62.1284291
  61.4314417 108.3591686  62.3434334  51.7537054  97.6670560  61.6942768
  51.2174411  97.2161299  62.3464364  51.1653762  97.8016469  60.9513232
  51.1639313  97.1259212  44.2569232  50.2868779  97.0048012  43.8931478
  51.6397066  96.3345290  44.0048120  61.0312306 105.5812280  61.0267688
  60.1439085 105.2438201  61.1494086  61.6010857 104.8495311  61.2636453
  42.6841453 101.9136371  54.3510739  43.3712493 101.5998101  53.7631754
  42.5289582 102.8177736  54.0777990  47.4876175  96.8026568  58.7795763
  47.4034364  96.1952237  58.0446173  46.6658882  97.2935586  58.7805259
  54.5613459 110.2413732  57.9928931  54.4883631 111.0468703  58.5048235
  54.1190852 110.4405698  57.1676952  54.3503239 109.4785502  51.5031752
  53.5670761 110.0207182  51.5969977  55.0495984 109.9959482  51.9025993
  57.6599889  95.2880131  54.1465958  58.1568589  94.5350094  53.8267028
  56.8886871  95.3244448  53.5809167  65.5129646 100.9920497  55.7884249
  65.5019523 101.8745212  55.4178182  64.6447026 100.6392048  55.5938786
  57.0212143 110.1400566  60.1487089  57.7340115 110.7748031  60.0762991
  56.5302171 110.2364432  59.3327091  58.7429670 104.0451819  51.7204381
  57.8085948 104.1653281  51.5509085  58.9206338 103.1424285  51.4564391
  54.2434858  97.4297514  53.8737642  53.8732645  96.8768555  54.5618548
  54.7393950  96.8255648  53.3212642  62.1302221  99.8869138  52.2554415
  62.5962673 100.7197129  52.1814718  62.5809722  99.4214119  52.9599674
  52.0724056 107.8895009  60.9692660  52.7733516 108.5231492  61.1222054
  51.6019171 108.2309741  60.2088299  60.1978452 106.2312959  49.2540567
  60.4738296 106.1169554  50.1634441  59.3282951 105.8330444  49.2152740
  60.1018884  92.2549725  56.2945317  59.1881964  92.4853952  56.4627523
  60.5311985  92.3388169  57.1459349  59.8725342 100.4439617  58.7945211
  59.2196793 100.6915524  58.1397663  60.2505722  99.6303755  58.4607688
  56.8332516 110.4799310  52.8973381  57.0154911 109.6620966  53.3601133
  57.6565502 110.6967002  52.4598271  57.1674682 109.4067495  50.1588429
  57.6962448 108.8959950  49.5458591  57.4302901 109.0910025  51.0233962
  55.9212915 101.1859428  65.2811248  55.2453552 101.0853557  65.9513623
  56.7440549 101.0298642  65.7447245  47.6691774 107.4231364  57.9023763
  48.2545211 106.6775052  58.0351667  47.4716613 107.7335321  58.7860427
  50.5230430 110.4582612  52.9186205  49.8540805 110.9428739  52.4350245
  50.3843299 110.7051832  53.8329584  42.2609429  99.9936965  56.6228206
  42.2993529  99.4600555  57.4165324  41.7549722  99.4672170  56.0039183
  54.6635698 112.4926355  59.5168864  55.2154006 112.6557977  60.2817949
  55.0041892 113.0830793  58.8448888  49.6400191  94.8401505  60.1190748
  49.7041518  95.7016336  59.7068146  49.5767312  94.2275507  59.3863107
  49.1152464  96.9124638  63.7663783  49.7424503  96.5301715  64.3801307
  48.2580383  96.6938840  64.1319475  59.5146573 107.3187613  65.3717518
  60.0586477 107.9317571  64.8772473  58.9333417 107.8767191  65.8884531
  45.8918007  98.7201067  49.6982137  46.1871448  97.8111745  49.6449191
  44.9906042  98.6988806  49.3763140  57.8004085 110.4408331  56.5032546
  57.6755225 109.6398071  55.9943491  58.4583177 110.9354524  56.0146516
  49.4212254  96.7957063  55.6809686  48.6998839  97.4093031  55.5417159
  50.2105509  97.3314828  55.6026332  59.8638994 108.2417351  58.1312096
  58.9169329 108.1222702  58.0590423  60.2121767 107.3539849  58.2138357
  52.2238567  94.1311490  61.9550338  52.7472969  94.3773786  62.7176647
  52.0050901  94.9631525  61.5353475  47.6205848  96.4015164  49.8221463
  47.2918554  95.5212543  49.6396569  47.9745219  96.3462833  50.7097852
  56.8685427 108.0370067  54.3316448  56.7210390 107.1086775  54.5124018
  57.6938921 108.0590158  53.8473523  50.7347671  96.6888134  50.1896940
  51.0743744  97.2174055  49.4675549  51.1819792  97.0268540  50.9655507
  60.4719549 108.8598626  55.4181321  61.3966096 108.6541487  55.2805772
  60.3034852 108.6115027  56.3270662  53.4291112  95.0725185  59.6400008
  53.0887933  94.2732998  60.0420688  52.7230119  95.3726896  59.0676842
  54.0807584  92.1574497  58.0927331  54.9033653  91.6834976  57.9706222
  54.3245648  92.9364981  58.5926018  52.7215819  95.1862756  48.3890233
  53.4424181  95.5644009  47.8853950  52.0981123  95.9051633  48.4925211
  56.8646941  95.8907905  49.3248565  57.0810556  96.7732543  49.0237394
  56.3841009  95.4994118  48.5954207  51.6046163  98.8493618  55.9019310
  51.4590744  99.1633921  56.7943591  51.1271367  99.4678518  55.3490209
  53.4642546  95.8396166  55.9500200  53.4504115  94.9437259  55.6132497
  54.1814974  95.8466830  56.5838486  55.3168676  96.2733506  57.9953327
  55.0586454  97.1950577  57.9937657  54.7853717  95.8763941  58.6853791
  60.2614865 109.3784293  50.7743412  60.4351743 108.8130716  50.0217265
  60.7543756 110.1785188  50.5922902  46.0791825 101.3898962  58.8406971
  45.5345293 102.1658770  58.9727245  46.9571175 101.7369767  58.6826093
  52.8679442  94.7210546  51.2187770  52.9895353  93.7927192  51.4178657
  52.5781484  94.7349232  50.3066085  55.7370632  92.4065457  54.3554489
  55.7592329  92.4704790  53.4006469  56.1538691  91.5669965  54.5494996
  66.1154256 102.1420716  52.3933712  66.5585402 101.3928041  51.9952835
  65.2380767 102.1330853  52.0107444  61.2490038 108.6951058  47.8740311
  61.9440942 109.3157750  48.0927625  61.5913188 107.8446409  48.1492688
  46.8657847 100.5168859  61.7337128  46.1239583 100.6651494  62.3201758
  46.5450591 100.7777124  60.8703877  63.1481461 106.1450763  49.4027641
  63.6732785 106.4838036  48.6776961  63.0603813 105.2097779  49.2190776
  54.8101510 110.0584837  61.5317518  55.1188636 109.8133984  62.4040218
  55.6076992 110.2631475  61.0436388  54.8322122 112.2122747  53.7622895
  54.3927112 111.7199125  54.4555751  55.5830239 111.6695714  53.5214970
  47.3114461 108.4034287  53.7647523  48.1372480 108.1038059  53.3846166
  46.9608513 107.6341910  54.2137311  52.2795994 107.7560756  55.8345196
  51.6576003 107.0931461  55.5347424  52.9500861 107.7821888  55.1518844
  45.5123066 106.3220614  54.7236456  44.6754974 105.8942788  54.5420457
  45.4846711 106.5153057  55.6607247  52.3520521  96.2342544  65.4277702
  52.4008677  97.1104666  65.0455472  52.8943035  95.6919937  64.8549345
  62.8375367 106.7783667  64.7078839  62.0470911 106.7607806  64.1683339
  62.6008721 107.3171961  65.4627876  62.9573242 103.6276133  62.0211568
  63.0071247 103.4626141  62.9627091  62.8487165 102.7603392  61.6309449
  51.8409501 106.3064679  49.3103657  51.9897621 106.9900143  48.6570330
  52.6475944 106.2869769  49.8253112  60.2477004  99.6107061  63.3370875
  61.1486867  99.4713526  63.0454872  60.3224979  99.7761516  64.2769052
  54.5819810  96.9873916  62.1824061  53.7123119  97.2807482  61.9106649
  54.8179290  97.5714361  62.9031325  64.4591439 106.0473075  62.2653589
  64.1676247 106.4103055  63.1017050  63.8463570 105.3340083  62.0866921
  65.6587121 103.6125955  54.7856160  66.4934012 104.0515759  54.9493720
  65.7946250 103.1364608  53.9664405  62.7078627 101.1705689  60.7333647
  63.1832749 101.3633336  59.9252499  61.7844192 101.2264875  60.4877031
  49.5962134 102.3329857  50.3164726  49.3508176 101.4292187  50.5144936
  49.7658048 102.3347007  49.3744204  57.2858844  93.2053533  59.6989481
  57.8040787  93.9414560  59.3735970  56.9313976  93.5117526  60.5336240
  48.8657781  98.0658214  47.8150887  48.1727026  98.1402569  47.1590923
  48.6209533  97.3018558  48.3372404  57.5371438  89.6253816  55.2190378
  57.8173191  88.9577005  55.8450804  58.3222045  89.8182911  54.7065042
  55.3404906 108.8012809  46.7815404  54.7678873 109.4202997  46.3285876
  55.9137700 109.3512171  47.3155326  61.4080296  98.0471450  58.9661953
  62.3597719  98.1469547  58.9874177  61.2383746  97.2549718  59.4760037
  59.4294675  95.1327033  59.1521354  58.8344608  95.4132045  58.4567843
  59.1444372  95.6220934  59.9238095  58.5602166 109.0849960  47.9123986
  59.4932839 109.0195521  48.1156862  58.4725379 109.9206226  47.4538519
  61.1890183 108.4015830  44.8727934  61.1103814 108.0675694  45.7663692
  62.0099849 108.8937598  44.8719406  63.8868374 101.2677569  58.0804253
  63.8544694 100.3293570  58.2663936  64.4968997 101.3461606  57.3470078
  55.7251705 100.1373622  44.1231457  56.6710809 100.0079830  44.1919875
  55.3465950  99.3988284  44.6000885  64.0362862  98.0588613  58.1262536
  63.5201911  97.2747069  57.9392465  64.9202811  97.7307329  58.2909055
  61.6973589  91.8029628  54.0858349  61.4998410  91.4944716  54.9701680
  62.3073295  92.5291267  54.2156278  69.7044924 102.3293576  57.2210289
  70.4348312 102.0678864  57.7817993  69.0951869 101.5922298  57.2612357
  67.7860221 100.4701439  57.8184741  67.0593384 100.3357404  57.2101232
  67.3707508 100.7778267  58.6241459  55.6090397 104.1891368  65.5832114
  56.5293407 104.3669967  65.7772160  55.5739980 103.2447414  65.4311813
  53.9094622  98.0623599  44.0586342  53.0026077  97.7656711  44.1349056
  54.1870603  97.7653417  43.1920628  44.8272562  99.3829962  54.5085388
  44.5075347  98.5295270  54.2159762  44.2805990  99.5978540  55.2643356
  48.6052470 102.0992403  58.2254895  48.8238480 103.0309511  58.2442929
  49.0178244 101.7400377  59.0109699  55.5256688  92.6060488  50.2130583
  54.7157416  92.2607573  50.5885829  56.2141104  92.2968032  50.8018195
  57.4547236  91.6838535  51.8354880  58.0078274  92.1033989  52.4944903
  57.6917322  90.7574283  51.8777836  53.4780335  97.6725609  67.6157644
  53.3777062  98.6219966  67.5469735  53.2601877  97.3443848  66.7433714
  52.6793406  94.9210534  44.1998321  53.5412570  95.2465432  44.4594138
  52.8643751  94.1342030  43.6871387  44.6960822 103.0032873  56.4778510
  44.0024294 102.5886826  55.9648464  45.4433813 103.0453410  55.8811929
  60.8326043  93.7939060  51.3433544  60.2524712  94.4523864  50.9611597
  60.5661976  92.9716405  50.9320962  59.2829609  93.1944118  53.5454864
  59.7829388  93.3060652  52.7369183  59.9265217  92.8905171  54.1855673
  53.3411605 101.1022748  66.4322705  52.8578687 101.9023108  66.6386594
  53.4272544 101.1130692  65.4790149  46.6097565 102.9351127  54.3544525
  46.5868253 103.0338815  53.4026408  46.9198201 103.7816278  54.6761691
  49.2684943 104.9927282  58.4691139  50.2228196 104.9611225  58.4021071
  49.0697466 104.5317906  59.2841365  49.8584325 103.5628398  61.0361937
  50.6777214 104.0572477  61.0596774  50.1321132 102.6460366  61.0079504
  59.6150921  95.9539151  50.3989892  58.7276776  96.2388801  50.1810087
  60.0304910  95.7932914  49.5517169  62.9665457  95.9785672  54.1144232
  63.7425847  96.4682124  54.3868848  62.2413591  96.4043726  54.5716101
  65.4038016  96.6913291  55.1718172  65.9982507  96.4509027  54.4611480
  65.4764599  95.9720421  55.7991709  58.7594134 105.7183825  44.4937912
  59.4629985 105.9233828  45.1095568  58.0356783 106.2860587  44.7586996
  59.5891945 101.4693687  50.6140183  59.5327146 101.9262238  49.7747815
  60.1420287 100.7084371  50.4363025  63.3996751  97.2583418  51.4390302
  63.1433685  96.8580054  52.2698510  62.7749619  97.9727212  51.3140441
  67.7109088  99.9979492  53.9461593  67.1508646 100.0672681  54.7193155
  67.1052592  99.8220476  53.2261090  60.6680832 106.1566355  46.5436372
  61.5026436 105.7247553  46.3613847  60.5065175 105.9848368  47.4713267
  60.3226724 102.6598468  47.9092712  60.2675528 102.4942739  46.9681156
  59.6972779 103.3674501  48.0654901  45.1119239  97.8966532  61.7354134
  45.7578103  97.3865486  62.2241359  44.9036390  98.6335214  62.3097559
  57.6372631 104.9647380  67.2346274  58.5063791 105.1388032  66.8732909
  57.1579383 105.7841797  67.1122004  53.6322849  92.1606577  47.4878030
  53.6201519  93.1048417  47.6446301  54.5246271  91.9776722  47.1937491
  51.8058811 112.0844481  58.9135708  52.7086058 112.1168091  59.2302203
  51.5796181 111.1544932  58.9282044  53.5612413 110.8375467  55.5745787
  52.6108044 110.8377329  55.4610159  53.8644900 110.0908202  55.0581821
  57.4474969  88.7549353  51.7423967  56.6807365  88.2007840  51.8880649
  57.8585674  88.8271222  52.6038119  49.4516730  95.0434149  65.8329148
  50.3148192  94.6870954  66.0432473  48.8782141  94.7048044  66.5204552
  69.2965107 116.6736006  56.6391549  69.9343517 116.5542753  55.9354889
  69.1785950 117.6216850  56.6979501  66.1054813 116.6263434  56.5753074
  65.7673325 116.5104498  55.6873609  66.9744581 116.2254599  56.5554080
  63.8063093 115.3951681  45.9070014  64.0588613 114.8733202  45.1453477
  62.8687652 115.2317827  46.0096698  68.8506375 114.3987459  53.7144757
  69.6369465 113.9806883  53.3635174  69.1145080 115.3033552  53.8826406
  74.2514803 114.3362693  54.6177736  74.9839974 113.7661909  54.8515565
  73.4954158 113.9484293  55.0584241  65.8690922 116.7589934  51.8141078
  65.5049129 116.2320555  52.5254000  66.7258038 116.3688403  51.6407564
  71.7740223 108.0484267  59.0772344  71.4423548 108.9179678  58.8533559
  71.1785836 107.7320551  59.7566375  65.5096409 111.7879834  46.8102427
  65.6770812 112.6560070  47.1772898  65.3193578 111.9507116  45.8863716
  71.6668886 112.7679353  56.1565694  70.7585764 112.6994761  55.8624455
  71.6156482 113.2451298  56.9847520  65.4885630 114.2437491  47.7949094
  65.3685255 114.6894542  48.6334574  64.7938218 114.5922809  47.2362632
  65.7409752 114.1868999  64.1000592  64.9643086 114.7462919  64.0903456
  66.3800315 114.6725782  64.6215462  73.5330533 110.9695791  57.9343568
  72.8904913 111.2628325  57.2883363  73.0285461 110.8548712  58.7396765
  71.1870696 114.7158965  48.6229428  72.0988552 114.9486351  48.4477125
  70.6780343 115.2996009  48.0604506  65.8242534 114.0756199  59.6324277
  66.6703729 114.4995613  59.7758926  65.7641172 113.4189823  60.3262840
  68.9741979 111.7360568  61.2905451  68.7302911 112.4902628  60.7539726
  69.2501910 112.1145915  62.1252698  70.9280442 118.2799180  59.9682716
  71.1397337 118.9230940  59.2917097  70.8810190 117.4461496  59.5004646
  68.5306671 110.8917001  56.8719288  67.6691150 111.1898254  57.1636026
  68.5569106 111.1087399  55.9400321  64.2837127 115.5582343  50.0882659
  64.9861170 116.0103387  50.5556586  63.9517755 114.9166162  50.7162552
  62.7317488 114.1494100  64.4633869  62.1016149 114.8310381  64.6969265
  62.6253576 114.0377182  63.5187007  58.0262460 113.8165896  55.3899793
  57.2361514 114.0723425  54.9139903  58.5173708 114.6314234  55.4951833
  59.9777206 114.1810475  52.3483270  59.1808369 114.2929170  52.8666765
  59.7502798 114.5197128  51.4824160  62.0098231 108.4514866  66.8259120
  61.6165176 107.8981064  67.5006764  62.8264371 108.7625444  67.2165637
  64.9266192 109.8672745  64.4179376  65.6675905 110.4679898  64.3383839
  65.1584115 109.1250383  63.8597419  68.8723355 105.8953848  58.6943658
  68.5287624 106.7855490  58.6182769  69.2402317 105.7055506  57.8313243
  68.8373637 115.8862459  47.2016093  68.3220261 116.6567064  47.4404480
  68.5650946 115.2127595  47.8249154  66.4220748 110.7312160  52.2601331
  65.5662345 110.3419010  52.0806970  66.8347700 110.8104121  51.4001117
  67.9519895 108.2658503  56.6592891  67.4484691 108.2288638  55.8460696
  68.2450502 109.1751246  56.7189548  64.1962781 108.3497233  55.6659073
  65.0615778 108.1540042  55.3064962  64.2640290 108.1207585  56.5928430
  73.8107912 118.6394814  49.1369267  73.0337354 118.3005973  48.6924429
  74.4899393 118.6447437  48.4624232  68.6259941 113.7589551  49.0275874
  68.3210076 114.0735700  49.8786017  69.5790383 113.8370971  49.0703207
  72.0499218 118.1128795  55.7935875  71.3922893 118.8028056  55.8816003
  72.8539618 118.5025227  56.1369861  61.8025100 110.5799441  53.0375440
  62.3768852 110.3574622  52.3048633  62.3896082 110.6488135  53.7904041
  70.8604677 116.4673168  53.8439816  71.3736559 117.1003159  54.3461526
  71.5105901 115.8674363  53.4783176  62.1294687 112.6103902  47.0571325
  61.2931999 112.9478588  47.3780600  61.9899457 112.4752882  46.1198462
  64.1047768 107.4540690  51.7650509  63.4512180 107.1389707  51.1407124
  64.0628242 106.8316430  52.4910332  67.3385508 113.9422623  56.0898157
  66.4208069 114.1637570  55.9319845  67.7545652 114.0168934  55.2309864
  68.1220556 115.3414039  51.2200837  68.8692375 115.8535436  50.9107959
  68.3912145 115.0198092  52.0805231  70.5699393 112.3771155  53.2019626
  69.8322150 111.8648541  53.5329869  70.8226167 111.9371537  52.3902903
  70.6711020 105.1547407  53.7961396  70.9769897 104.2944771  53.5087311
  71.3963625 105.7465027  53.5960390  64.9432100 115.4501200  54.3037587
  64.9980710 114.4975037  54.2280063  64.1323302 115.6060639  54.7878885
  62.8824460 114.0678260  52.0627966  62.0692326 114.3672431  52.4693158
  63.3783454 113.6733949  52.7802448  68.4798672 114.5320084  60.8942859
  68.8348059 114.7591558  61.7537325  69.1270803 114.8638461  60.2720115
  74.2096409 117.6538520  51.5992188  74.0714307 117.8440116  50.6713378
  73.8532627 118.4157903  52.0560240  62.3738535 111.6396615  57.6789201
  63.0137914 111.4985375  56.9812164  61.5416065 111.3531129  57.3027802
  59.3767151 111.6096940  52.4562187  59.6373968 112.5242274  52.3471348
  60.1984324 111.1421383  52.6058800  60.8492077 113.0234698  59.6261012
  61.5215130 112.8152060  58.9773661  60.0221863 112.8256784  59.1866244
  66.7517649 109.6496639  61.6426673  66.1045564 110.3486588  61.5491149
  67.5218664 110.0832782  62.0102921  66.9281783 117.4877403  59.7023492
  67.8573843 117.6388563  59.5292460  66.5072813 117.5761424  58.8472139
  63.8801874 116.0097260  59.8747129  64.5901493 115.3690452  59.8333747
  63.8371183 116.2610155  60.7973309  62.5930808 112.9962478  61.6942768
  62.0568165 112.5453216  62.3464364  62.0047517 113.1308387  60.9513232
  62.0033067 112.4551129  44.2569232  61.1262534 112.3339930  43.8931478
  62.4790820 111.6637208  44.0048120  58.3269930 112.1318486  58.7795763
  58.2428118 111.5244155  58.0446173  57.5052636 112.6227504  58.7805259
  68.4993644 110.6172049  54.1465958  68.9962343 109.8642011  53.8267028
  67.7280625 110.6536366  53.5809167  76.3523401 116.3212415  55.7884249
  76.3413277 117.2037130  55.4178182  75.4840780 115.9683965  55.5938786
  65.0828612 112.7589432  53.8737642  64.7126400 112.2060472  54.5618548
  65.5787705 112.1547566  53.3212642  72.9695976 115.2161056  52.2554415
  73.4356428 116.0489047  52.1814718  73.4203476 114.7506037  52.9599674
  70.9412638 107.5841643  56.2945317  70.0275718 107.8145869  56.4627523
  71.3705740 107.6680087  57.1459349  70.7119097 115.7731535  58.7945211
  70.0590547 116.0207442  58.1397663  71.0899477 114.9595673  58.4607688
  66.7606670 116.5151346  65.2811248  66.0847307 116.4145475  65.9513623
  67.5834304 116.3590559  65.7447245  60.4793946 110.1693423  60.1190748
  60.5435272 111.0308254  59.7068146  60.4161066 109.5567424  59.3863107
  59.9546218 112.2416555  63.7663783  60.5818257 111.8593633  64.3801307
  59.0974137 112.0230757  64.1319475  60.2606008 112.1248981  55.6809686
  59.5392594 112.7384949  55.5417159  61.0499264 112.6606746  55.6026332
  63.0632322 109.4603408  61.9550338  63.5866724 109.7065704  62.7176647
  62.8444655 110.2923442  61.5353475  58.4599603 111.7307082  49.8221463
  58.1312309 110.8504461  49.6396569  58.8138973 111.6754751  50.7097852
  61.5741426 112.0180052  50.1896940  61.9137498 112.5465973  49.4675549
  62.0213546 112.3560458  50.9655507  64.2684867 110.4017103  59.6400008
  63.9281687 109.6024916  60.0420688  63.5623873 110.7018813  59.0676842
  64.9201339 107.4866415  58.0927331  65.7427408 107.0126893  57.9706222
  65.1639402 108.2656899  58.5926018  63.5609573 110.5154674  48.3890233
  64.2817936 110.8935926  47.8853950  62.9374877 111.2343550  48.4925211
  67.7040696 111.2199822  49.3248565  67.9204310 112.1024460  49.0237394
  67.2234763 110.8286036  48.5954207  62.4439917 114.1785536  55.9019310
  62.2984498 114.4925839  56.7943591  61.9665121 114.7970436  55.3490209
  64.3036300 111.1688084  55.9500200  64.2897869 110.2729177  55.6132497
  65.0208728 111.1758747  56.5838486  66.1562431 111.6025424  57.9953327
  65.8980209 112.5242495  57.9937657  65.6247471 111.2055858  58.6853791
  63.7073196 110.0502464  51.2187770  63.8289107 109.1219110  51.4178657
  63.4175239 110.0641150  50.3066085  66.5764387 107.7357374  54.3554489
  66.5986083 107.7996708  53.4006469  66.9932446 106.8961883  54.5494996
  76.9548011 117.4712634  52.3933712  77.3979157 116.7219959  51.9952835
  76.0774521 117.4622770  52.0107444  63.1914276 111.5634461  65.4277702
  63.2402431 112.4396584  65.0455472  63.7336790 111.0211854  64.8549345
  73.7966996 118.9568051  62.0211568  73.8465001 118.7918058  62.9627091
  73.6880920 118.0895310  61.6309449  71.0870759 114.9398979  63.3370875
  71.9880622 114.8005444  63.0454872  71.1618733 115.1053434  64.2769052
  65.4213564 112.3165834  62.1824061  64.5516874 112.6099400  61.9106649
  65.6573045 112.9006279  62.9031325  73.5472382 116.4997607  60.7333647
  74.0226503 116.6925253  59.9252499  72.6237947 116.5556793  60.4877031
  68.1252598 108.5345451  59.6989481  68.6434542 109.2706478  59.3735970
  67.7707731 108.8409444  60.5336240  59.7051536 113.3950132  47.8150887
  59.0120781 113.4694487  47.1590923  59.4603288 112.6310476  48.3372404
  68.3765192 104.9545733  55.2190378  68.6566946 104.2868922  55.8450804
  69.1615799 105.1474829  54.7065042  72.2474051 113.3763367  58.9661953
  73.1991473 113.4761465  58.9874177  72.0777501 112.5841636  59.4760037
  70.2688430 110.4618950  59.1521354  69.6738362 110.7423963  58.4567843
  69.9838127 110.9512851  59.9238095  74.7262128 116.5969487  58.0804253
  74.6938448 115.6585488  58.2663936  75.3362752 116.6753524  57.3470078
  66.5645459 115.4665540  44.1231457  67.5104564 115.3371748  44.1919875
  66.1859704 114.7280202  44.6000885  74.8756617 113.3880530  58.1262536
  74.3595665 112.6038987  57.9392465  75.7596565 113.0599247  58.2909055
  72.5367344 107.1321546  54.0858349  72.3392165 106.8236634  54.9701680
  73.1467049 107.8583185  54.2156278  78.6253975 115.7993356  57.8184741
  77.8987139 115.6649321  57.2101232  78.2101262 116.1070185  58.6241459
  64.7488376 113.3915516  44.0586342  63.8419832 113.0948629  44.1349056
  65.0264357 113.0945334  43.1920628  66.3650442 107.9352406  50.2130583
  65.5551170 107.5899491  50.5885829  67.0534859 107.6259950  50.8018195
  68.2940990 107.0130453  51.8354880  68.8472029 107.4325906  52.4944903
  68.5311077 106.0866201  51.8777836  64.3174090 113.0017526  67.6157644
  64.2170816 113.9511883  67.5469735  64.0995632 112.6735765  66.7433714
  63.5187161 110.2502451  44.1998321  64.3806325 110.5757350  44.4594138
  63.7037505 109.4633947  43.6871387  71.6719797 109.1230978  51.3433544
  71.0918466 109.7815782  50.9611597  71.4055730 108.3008323  50.9320962
  70.1223364 108.5236036  53.5454864  70.6223142 108.6352570  52.7369183
  70.7658972 108.2197088  54.1855673  70.4544675 111.2831068  50.3989892
  69.5670530 111.5680719  50.1810087  70.8698665 111.1224832  49.5517169
  73.8059212 111.3077589  54.1144232  74.5819602 111.7974042  54.3868848
  73.0807346 111.7335643  54.5716101  76.2431770 112.0205209  55.1718172
  76.8376261 111.7800944  54.4611480  76.3158354 111.3012339  55.7991709
  70.4285699 116.7985604  50.6140183  70.3720901 117.2554156  49.7747815
  70.9814042 116.0376289  50.4363025  74.2390505 112.5875336  51.4390302
  73.9827439 112.1871972  52.2698510  73.6143373 113.3019130  51.3140441
  78.5502843 115.3271409  53.9461593  77.9902401 115.3964599  54.7193155
  77.9446346 115.1512394  53.2261090  71.1620479 117.9890385  47.9092712
  71.1069282 117.8234657  46.9681156  70.5366534 118.6966418  48.0654901
  64.4716604 107.4898495  47.4878030  64.4595274 108.4340334  47.6446301
  65.3640026 107.3068640  47.1937491  68.2868723 104.0841271  51.7423967
  67.5201119 103.5299758  51.8880649  68.6979428 104.1563140  52.6038119
  60.2910484 110.3726067  65.8329148  61.1541946 110.0162872  66.0432473
  59.7175895 110.0339962  66.5204552  15.0996336  17.0338540  43.3636856
  15.7374746  16.9145287  42.6600196  14.9817179  17.9819384  43.4224808
  11.9086042  16.9865968  43.2998381  11.5704554  16.8707033  42.4118915
  12.7775810  16.5857133  43.2799387   7.7672858  18.8401444  39.2895271
   7.2037723  18.7491381  38.5211559   7.6525253  18.0201349  39.7697764
  12.3905825  18.1400820  49.2584586  12.3794466  17.7453618  48.3865090
  12.5526464  17.4066892  49.8518357   5.3137290  20.3352636  42.1279492
   6.1058582  19.9943461  41.7125791   5.5533940  20.4447611  43.0481645
  13.3472416  22.5072412  34.6009736  12.6960396  23.0926492  34.2143750
  14.1416779  23.0378607  34.6604774   7.2728044  19.5961549  34.9996871
   8.0458920  19.0490536  34.8609747   7.6253442  20.4605799  35.2111332
   9.1113086  20.9237931  48.2063770   8.8202952  21.8283562  48.0910436
   9.7470070  20.9654459  48.9207840  10.0369293  18.3014780  44.7965130
  10.6332865  18.0770802  44.0822093  10.0944265  17.5599525  45.3990578
   9.6094321  15.7554215  32.6315321   9.8619842  15.2335737  31.8698784
   8.6718880  15.5920361  32.7342004  14.6537604  14.7589994  40.4390064
  15.4400693  14.3409417  40.0880481  14.9176309  15.6636086  40.6071712
  14.8247682  20.1962844  35.1378721  14.1893515  20.2697471  35.8499625
  14.4945088  20.7856443  34.4597800  20.0546031  14.6965227  41.3423042
  20.7871203  14.1264444  41.5760872  19.2985387  14.3086827  41.7829548
   9.3290610  17.6582321  34.8339696   9.2126868  16.9827225  35.5020780
   9.4392870  17.1714695  34.0171849  11.6722151  17.1192468  38.5386385
  11.3080358  16.5923089  39.2499306  12.5289267  16.7290937  38.3652870
  17.5771452   8.4086801  45.8017651  17.2454776   9.2782212  45.5778866
  16.9817065   8.0923085  46.4811681  11.3127638  12.1482368  33.5347733
  11.4802040  13.0162604  33.9018204  11.1224807  12.3109650  32.6109023
  14.0702971  20.6099347  45.2013564  13.7703694  21.5124386  45.0929371
  13.7254031  20.3431530  46.0534717   7.5215453  17.0613144  41.2350268
   6.5965949  16.9289358  41.4427960   7.7699866  17.8407363  41.7320211
  17.4700115  13.1281887  42.8811001  16.5616992  13.0597296  42.5869762
  17.4187711  13.6053832  43.7092826  11.2916859  14.6040026  34.5194400
  11.1716484  15.0497076  35.3579880  10.5969447  14.9525343  33.9607938
   4.8824264  16.7046417  42.0694057   5.0116645  16.9580896  42.9833469
   4.2021715  17.2974125  41.7498712   9.0523751  27.3743667  38.1684531
   8.9747781  28.3251492  38.2473012   8.4485395  27.0289540  38.8259458
  11.5440981  14.5471533  50.8245898  10.7674315  15.1065453  50.8148763
  12.1831544  15.0328316  51.3460768  19.3361761  11.3298326  44.6588875
  18.6936142  11.6230859  44.0128670  18.8316690  11.2151246  45.4642072
  16.9901925  15.0761499  35.3474734  17.9019781  15.3088886  35.1722432
  16.4811572  15.6598543  34.7849813   9.7987353  17.3556986  50.3863865
  10.5402037  17.8942030  50.1098689   9.0924339  17.9823275  50.5435417
  15.2742693  19.4986127  48.9836027  15.6826049  19.0568537  48.2390659
  14.5519954  18.9238754  49.2370220  11.6273763  14.4358733  46.3569584
  12.4734958  14.8598147  46.5004233  11.5672400  13.7792358  47.0508147
  15.5971507  20.0587317  42.7388316  14.9680370  20.2233031  42.0364384
  15.2097169  20.4728927  43.5099280  19.4760739  20.9941755  40.0932679
  18.7911777  21.3740656  39.5429713  19.5604589  21.6037082  40.8264627
  14.7773208  12.0963102  48.0150757  14.5334140  12.8505162  47.4785033
  15.0533139  12.4748449  48.8498004  16.7311671  18.6401714  46.6928023
  16.9428566  19.2833474  46.0162404  16.6841419  17.8064031  46.2249953
  14.3337900  11.2519535  43.5964595  13.4722379  11.5500788  43.8881333
  14.3600334  11.4689934  42.6645628  11.1499469  19.7961725  40.0038401
  11.6137815  20.0749428  39.2143023  10.8856267  18.8945170  39.8211491
   8.0423550  19.3433207  42.9418164   8.6124907  19.7720475  42.3035649
   8.6331662  19.0615792  43.6402350  10.0868355  15.9184878  36.8127966
  10.7892399  16.3705921  37.2801892   9.7548984  15.2768697  37.4407859
   8.5348717  14.5096634  51.1879175   7.9047377  15.1912915  51.4214572
   8.4284805  14.3979716  50.2432314  17.8457499  21.5173670  44.8650380
  18.6674943  21.1153857  44.5833062  17.8419902  21.4141904  45.8166496
   5.7808435  14.5413010  39.0728576   4.9839598  14.6531704  39.5912072
   5.5534027  14.8799662  38.2069467  11.6114102  21.0657713  47.0211091
  11.6758535  21.5278120  47.8569263  10.9025026  20.4355078  47.1493401
  25.9363492  17.8612418  41.2135352  25.1827200  17.2919816  41.0579356
  26.0711033  17.8275082  42.1605986  11.3262120  22.7325820  36.8890071
  11.1907795  23.5777356  37.3174919  11.8671932  22.9345098  36.1256005
   4.7791517  20.2501258  37.4617996   5.2916038  21.0444509  37.6123561
   5.4314230  19.5527549  37.3951598   6.5886402  23.3667015  39.5440749
   6.7653030  24.2884979  39.3561733   7.3843236  23.0525434  39.9735129
  10.7297421  10.2275279  51.1424683  11.4707134  10.8282432  51.0629145
  10.9615343   9.4852917  50.5842725   5.8738759  15.4131646  49.4202913
   5.7592274  14.5116904  49.7210011   5.0183276  15.6595343  49.0687729
  12.9530596  23.3549387  51.0190413  12.5094451  22.5685765  50.7011318
  13.6147810  23.5428537  50.3534304   7.7117717  24.8845188  45.5451092
   8.2625143  24.7562252  44.7728086   6.8729193  25.1840077  45.1945984
  15.0511834  23.6352187  49.0471814  15.0330310  24.4561068  48.5552084
  15.9731754  23.5106262  49.2721956  11.5084889  21.1496316  49.8895323
  12.0413225  20.3884604  49.6594631  10.9798970  20.8569968  50.6319477
   2.7440434  18.5789913  38.2377567   3.5815656  18.9886921  38.0211274
   2.9218702  17.6389355  38.2077761  14.6404866  16.2464993  33.9261400
  14.1251490  17.0169598  34.1649787  14.3682175  15.5730129  34.5494461
  12.2251977  11.0914694  38.9846638  11.3693574  10.7021544  38.8052277
  12.6378929  11.1706655  38.1246424  13.7551124   8.6261037  43.3838198
  13.2515919   8.5891172  42.5706003  14.0481731   9.5353780  43.4434854
  19.6139140  18.9997348  35.8614573  18.8368583  18.6608507  35.4169735
  20.2930621  19.0049971  35.1869538  14.4291169  14.1192085  35.7521181
  14.1241305  14.4338235  36.6031324  15.3821612  14.1973505  35.7948514
  12.8737601  20.2782309  37.4014135  12.3458963  19.5435068  37.0887372
  12.3725104  21.0556985  37.1554103  17.8530447  18.4731329  42.5181181
  17.1954122  19.1630591  42.6061310  18.6570846  18.8627761  42.8615167
  16.6635906  16.8275702  40.5685123  17.1767788  17.4605694  41.0706833
  17.3137130  16.2276897  40.2028483   7.9325916  12.9706436  33.7816632
   7.0963228  13.3081123  34.1025906   7.7930686  12.8355416  32.8443769
  11.0190201  18.0962519  30.4049108  10.1117263  17.8651772  30.6040257
  11.5161233  17.3000138  30.5923089  13.9258280  26.8060026  33.3245794
  13.2519979  27.1091723  33.9330752  14.3124102  27.6089106  32.9751251
  13.1416737  14.3025157  42.8143463  12.2239298  14.5240104  42.6565151
  13.5576881  14.3771468  41.9555171  13.9251785  15.7016573  37.9446144
  14.6723604  16.2137970  37.6353266  14.1943374  15.3800626  38.8050537
  12.1978435  18.1975114  34.9273098  11.2889654  17.9134147  35.0245568
  12.2273519  18.6174192  34.0676405  17.4297702  21.8081703  38.6964266
  16.9760029  20.9672613  38.7529456  16.7991669  22.4443102  39.0339046
  16.3730622  12.7373689  39.9264933  15.6353379  12.2251076  40.2575176
  16.6257395  12.2974071  39.1148210  15.8730642  23.6458200  39.6314084
  16.1653616  24.2063257  38.9126449  16.3829262  23.9386761  40.3867243
   2.7666605  15.9180628  38.9088300   2.5691005  15.3249989  38.1839367
   2.2113269  15.6132838  39.6264239  10.7463329  15.8103734  41.0282893
  10.8011939  14.8577571  40.9525370   9.9354531  15.9663174  41.5124192
  11.8954523  19.7383857  32.2661177  11.4573953  19.0219716  31.8066814
  12.6364964  19.9659972  31.7046268   8.6855689  14.4280794  38.7873272
   7.8723554  14.7274965  39.1938464   9.1814683  14.0336483  39.5047754
  10.8364267  24.4238551  40.7207537  10.7940446  24.6499397  39.7916069
  11.7526966  24.1901926  40.8693338  14.2829901  14.8922619  47.6188166
  14.6379288  15.1194092  48.4782632  14.9302032  15.2240995  46.9965421
  20.0127637  18.0141055  38.3237495  19.8745536  18.2042651  37.3958684
  19.6563856  18.7760437  38.7805546  20.0397017  20.0817582  43.3348767
  20.4733524  19.9892871  44.1831821  20.7528598  20.0575082  42.6968783
   8.9530067  21.3001580  40.5169500   9.7470666  20.8051900  40.3152075
   8.2421760  20.7719443  40.1537205  13.7724912  23.6819676  44.8681867
  13.8261934  24.2510612  45.6359583  12.9039693  23.8521561  44.5035904
   5.2612831  15.4444662  36.5929252   4.3310419  15.3829117  36.8099214
   5.3570303  14.9220615  35.7965894   6.6523305  13.3837232  46.3506318
   7.3246359  13.1754594  45.7018967   5.8253092  13.1859318  45.9111551
  20.9012567  20.1241282  45.8681652  21.0948457  21.0287093  46.1140927
  20.8013185  19.6648701  46.7020237  12.5548877  10.0099173  48.3671979
  11.9076792  10.7089122  48.2736456  13.3249893  10.4435317  48.7348228
  15.9627675  20.2748025  51.4422533  15.8113182  20.0458577  50.5252616
  15.9532355  21.2318626  51.4553878  12.7313012  17.8479938  46.4268799
  13.6605072  17.9991097  46.2537766  12.3104042  17.9363958  45.5717446
  11.5301343  21.8730602  44.1967337  11.3912429  21.5049386  45.0693275
  10.7415940  22.3878242  44.0251294  12.1249495  26.9739699  35.5392873
  12.3001251  26.5027742  36.3538496  11.4382283  27.6005465  35.7674134
  13.0806559  21.2512205  41.5856174  12.7456391  21.2112975  42.4813824
  12.5810504  20.5856921  41.1126585   7.0550803  16.6579835  47.1108756
   6.9170601  15.9260074  47.7120295   7.9655726  16.5688735  46.8292943
  16.0165750  18.5968239  31.8593234  15.3994921  17.8715067  31.7626287
  15.5482239  19.3577599  31.5160308   9.6833103  16.3699794  46.5992435
  10.3932722  15.7292986  46.5579054   9.6402411  16.6212689  47.5218616
  17.6719882  23.3067147  49.5199014  17.6132428  22.6226368  48.8529598
  18.0739400  24.0486137  49.0679640   8.3962037  13.3565012  48.4188075
   7.8599394  12.9055750  49.0709671   7.8078746  13.4910921  47.6758539
   6.6910581  30.1229061  42.3132733   6.9307179  30.7547585  42.9911752
   5.8479777  29.7717101  42.5998093  17.6737289  21.2706731  47.7512994
  16.7864068  20.9332653  47.8739393  18.2435840  20.5389763  47.9881760
  11.2038443  25.9308184  44.7174237  11.1308614  26.7363155  45.2293542
  10.7615836  26.1300150  43.8922259  10.9928222  25.1679954  38.2277059
  10.2095744  25.7101634  38.3215283  11.6920967  25.6853933  38.6271300
  14.3024872  10.9774583  40.8711264  14.7993572  10.2244546  40.5512335
  13.5311854  11.0138900  40.3054474  22.1554630  16.6814949  42.5129556
  22.1444506  17.5639664  42.1423489  21.2872009  16.3286500  42.3184093
  13.6637126  25.8295018  46.8732396  14.3765098  26.4642483  46.8008297
  13.1727155  25.9258884  46.0572398  15.3854653  19.7346270  38.4449688
  14.4510932  19.8547733  38.2754392  15.5631321  18.8318737  38.1809698
  10.8859841  13.1191966  40.5982949  10.5157629  12.5663007  41.2863854
  11.3818934  12.5150100  40.0457949  18.7727204  15.5763590  38.9799722
  19.2387657  16.4091581  38.9060025  19.2234705  15.1108571  39.6844980
   8.7149040  23.5789461  47.6937967   9.4158499  24.2125944  47.8467361
   8.2444155  23.9204193  46.9333606  16.8403435  21.9207411  35.9785874
  17.1163279  21.8064006  36.8879748  15.9707934  21.5224896  35.9398047
  16.7443867   7.9444177  43.0190623  15.8306947   8.1748404  43.1872830
  17.1736969   8.0282621  43.8704656  16.5150326  16.1334069  45.5190517
  15.8621776  16.3809976  44.8642970  16.8930706  15.3198207  45.1852994
  13.4757499  26.1693762  39.6218688  13.6579894  25.3515418  40.0846440
  14.2990486  26.3861454  39.1843577  13.8099665  25.0961947  36.8833736
  14.3387431  24.5854402  36.2703898  14.0727885  24.7804477  37.7479269
  12.5637899  16.8753880  52.0056554  11.8878536  16.7748009  52.6758930
  13.3865533  16.7193094  52.4692552   4.3116758  23.1125816  44.6269070
   4.8970195  22.3669504  44.7596974   4.1141596  23.4229773  45.5105733
   7.1655413  26.1477064  39.6431512   6.4965788  26.6323191  39.1595552
   7.0268283  26.3946284  40.5574890  11.3060682  28.1820807  46.2414170
  11.8578990  28.3452429  47.0063256  11.6466875  28.7725245  45.5694195
  16.1571556  23.0082065  52.0962825  16.7011460  23.6212023  51.6017780
  15.5758401  23.5661643  52.6129838  14.4429069  26.1302783  43.2277852
  14.3180208  25.3292523  42.7188798  15.1008160  26.6248976  42.7391822
  16.5063977  23.9311803  44.8557403  15.5594313  23.8117154  44.7835729
  16.8546750  23.0434301  44.9383664  13.5110410  23.7264519  41.0561755
  13.3635373  22.7981226  41.2369325  14.3363904  23.7484610  40.5718830
   7.3772655  12.3782586  36.9142247   7.7168727  12.9068507  36.1920855
   7.8244775  12.7162992  37.6900813  17.1144532  24.5493078  42.1426628
  18.0391080  24.3435939  42.0051079  16.9459836  24.3009479  43.0515969
   9.3640802  10.8757208  35.1135540  10.0849164  11.2538461  34.6099257
   8.7406106  11.5946085  35.2170518  13.5071925  11.5802357  36.0493872
  13.7235539  12.4626995  35.7482700  13.0265992  11.1888570  35.3199514
   8.2471146  14.5388070  42.6264617   8.1015727  14.8528373  43.5188898
   7.7696350  15.1572970  42.0735515  10.1067529  11.5290618  42.6745506
  10.0929098  10.6331711  42.3377804  10.8239957  11.5361282  43.3083792
  11.9593660  11.9627958  44.7198634  11.7011438  12.8845029  44.7182964
  11.4278700  11.5658393  45.4099098  16.9039849  25.0678745  37.4988719
  17.0776726  24.5025168  36.7462571  17.3968740  25.8679640  37.3168209
   2.7216808  17.0793414  45.5652278   2.1770276  17.8553222  45.6972552
   3.5996158  17.4264219  45.4071399  22.7579240  17.8315168  39.1179019
  23.2010386  17.0822493  38.7198142  21.8805750  17.8225305  38.7352751
  17.8915021  24.3845510  34.5985617  18.5865926  25.0052202  34.8172932
  18.2338171  23.5340861  34.8737995   3.5082830  16.2063311  48.4582435
   2.7664566  16.3545946  49.0447065   3.1875574  16.4671576  47.5949184
  19.7906444  21.8345215  36.1272948  20.3157768  22.1732488  35.4022268
  19.7028797  20.8992230  35.9436083  11.4526493  25.7479289  48.2562825
  11.7613619  25.5028436  49.1285524  12.2501975  25.9525927  47.7681695
  11.4747105  27.9017198  40.4868201  11.0352095  27.4093577  41.1801058
  12.2255222  27.3590166  40.2460276   3.9539444  24.0928739  40.4892829
   4.7797464  23.7932511  40.1091473   3.6033496  23.3236362  40.9382618
   8.9220977  23.4455208  42.5590503   8.3000986  22.7825913  42.2592731
   9.5925844  23.4716339  41.8764151   2.1548049  22.0115066  41.4481763
   1.3179957  21.5837240  41.2665764   2.1271694  22.2047509  42.3852554
   8.9945505  11.9236996  52.1523009   9.0433660  12.7999118  51.7700778
   9.5368019  11.3814389  51.5794652  19.4800350  22.4678119  51.4324146
  18.6895894  22.4502258  50.8928645  19.2433705  23.0066413  52.1873183
  19.5998225  19.3170585  48.7456875  19.6496230  19.1520593  49.6872397
  19.4912149  18.4497844  48.3554755   8.4834484  21.9959131  36.0348963
   8.6322604  22.6794595  35.3815636   9.2900927  21.9764221  36.5498419
  16.8901988  15.3001513  50.0616181  17.7911850  15.1607978  49.7700179
  16.9649962  15.4655968  51.0014359  11.2244793  12.6768368  48.9069368
  10.3548102  12.9701934  48.6351956  11.4604273  13.2608813  49.6276631
  21.1016422  21.7367527  48.9898896  20.8101230  22.0997507  49.8262357
  20.4888553  21.0234535  48.8112228  22.3012104  19.3020406  41.5101466
  23.1358996  19.7410211  41.6739027  22.4371233  18.8259060  40.6909712
  19.3503610  16.8600141  47.4578954  19.8257732  17.0527788  46.6497805
  18.4269176  16.9159327  47.2122338   6.2387117  18.0224309  37.0410032
   5.9933159  17.1186639  37.2390242   6.4083031  18.0241459  36.0989510
  13.9283827   8.8947985  46.4234788  14.4465771   9.6309012  46.0981276
  13.5738960   9.2011978  47.2581547  11.9829889  24.4907261  33.5060711
  11.4103857  25.1097448  33.0531183  12.5562683  25.0406623  34.0400633
  18.0505279  13.7365901  45.6907260  19.0022702  13.8363999  45.7119484
  17.8808730  12.9444170  46.2005344  16.0719659  10.8221485  45.8766661
  15.4769591  11.1026497  45.1813149  15.7869355  11.3115386  46.6483402
  15.2027149  24.7744411  34.6369293  16.1357822  24.7089973  34.8402169
  15.1150362  25.6100678  34.1783826  17.8315166  24.0910282  31.5973241
  17.7528797  23.7570145  32.4908999  18.6524833  24.5832050  31.5964713
  20.5293357  16.9572021  44.8049559  20.4969677  16.0188022  44.9909243
  21.1393981  17.0356058  44.0715384  12.3676688  15.8268074  30.8476763
  13.3135793  15.6974282  30.9165181  11.9890933  15.0882736  31.3246191
  20.6787846  13.7483065  44.8507842  20.1626894  12.9641521  44.6637771
  21.5627794  13.4201781  45.0154362  18.3398573   7.4924080  40.8103655
  18.1423394   7.1839168  41.6946987  18.9498278   8.2185719  40.9401585
  26.3469907  18.0188028  43.9455596  27.0773295  17.7573316  44.5063299
  25.7376852  17.2816750  43.9857664  24.4285204  16.1595891  44.5430047
  23.7018368  16.0251855  43.9346539  24.0132491  16.4672719  45.3486765
  12.2515381  19.8785820  52.3077420  13.1718390  20.0564419  52.5017467
  12.2164964  18.9341866  52.1557120   5.2477453  17.7886855  44.9500201
   5.4663463  18.7203963  44.9688235   5.6603227  17.4294829  45.7355005
  10.1205318  13.3620061  54.3402950  10.0202045  14.3114418  54.2715041
   9.9026860  13.0338300  53.4679020   1.3385806  18.6927325  43.2023817
   0.6449277  18.2781278  42.6893771   2.0858797  18.7347862  42.6057235
  17.4751026   9.4833512  38.0678851  16.8949695  10.1418316  37.6856903
  17.2086959   8.6610857  37.6566268  15.9254593   8.8838570  40.2700171
  16.4254371   8.9955104  39.4614490  16.5690201   8.5799623  40.9100980
   9.9836588  16.7917199  53.1568012   9.5003670  17.5917560  53.3631901
  10.0697527  16.8025144  52.2035456   3.2522548  18.6245579  41.0789831
   3.2293236  18.7233266  40.1271715   3.5623185  19.4710730  41.4006998
   5.9109926  20.6821734  45.1936446   6.8653179  20.6505677  45.1266377
   5.7122449  20.2212358  46.0086672   6.5009308  19.2522850  47.7607244
   7.3202197  19.7466929  47.7842081   6.7746116  18.3354818  47.7324811
  16.2575904  11.6433603  37.1235199  15.3701759  11.9283253  36.9055394
  16.6729893  11.4827366  36.2762476  19.6090440  11.6680124  40.8389538
  20.3850830  12.1576576  41.1114155  18.8838575  12.0938178  41.2961408
  22.0462999  12.3807743  41.8963479  22.6407490  12.1403479  41.1856787
  22.1189583  11.6614873  42.5237015   4.2660155  26.2241354  42.2106644
   4.1314623  25.4641755  41.6444642   3.8492217  26.9482254  41.7435433
  15.4019118  21.4078277  31.2183219  16.1054968  21.6128280  31.8340875
  14.6781766  21.9755039  31.4832303  16.2316928  17.1588138  37.3385489
  16.1752129  17.6156690  36.4993122  16.7845270  16.3978823  37.1608332
  20.0421734  12.9477870  38.1635609  19.7858668  12.5474506  38.9943816
  19.4174602  13.6621664  38.0385748  24.3534072  15.6873944  40.6706900
  23.7933630  15.7567133  41.4438462  23.7477575  15.5114928  39.9506396
   7.4229281  27.1210671  42.4225086   7.3061665  28.0656103  42.3203777
   6.6021727  26.8184232  42.8110886  17.3105815  21.8460806  33.2681679
  18.1451419  21.4142005  33.0859154  17.1490158  21.6742820  34.1958574
  16.9651707  18.3492920  34.6338018  16.9100511  18.1837191  33.6926462
  16.3397763  19.0568953  34.7900208  14.2797614  20.6541832  53.9591581
  15.1488774  20.8282484  53.5978216  13.8004366  21.4736248  53.8367310
   8.4483795  27.7738933  45.6381015   9.3511041  27.8062543  45.9547510
   8.2221165  26.8439384  45.6527351  10.2037397  26.5269919  42.2991093
   9.2533028  26.5271781  42.1855466  10.5069883  25.7802654  41.7827128
  25.9390090  32.3630458  43.3636856  26.5768500  32.2437205  42.6600196
  25.8210933  33.3111301  43.4224808  22.7479796  32.3157886  43.2998381
  22.4098308  32.1998950  42.4118915  23.6169565  31.9149051  43.2799387
  18.6066612  34.1693362  39.2895271  18.0431477  34.0783299  38.5211559
  18.4919007  33.3493266  39.7697764  23.2299579  33.4692737  49.2584586
  23.2188220  33.0745536  48.3865090  23.3920219  32.7358810  49.8518357
  16.1531044  35.6644554  42.1279492  16.9452336  35.3235378  41.7125791
  16.3927694  35.7739529  43.0481645  24.1866171  37.8364330  34.6009736
  23.5354151  38.4218410  34.2143750  24.9810534  38.3670525  34.6604774
  18.1121798  34.9253467  34.9996871  18.8852674  34.3782454  34.8609747
  18.4647197  35.7897716  35.2111332  19.9506841  36.2529849  48.2063770
  19.6596707  37.1575480  48.0910436  20.5863825  36.2946377  48.9207840
  20.8763047  33.6306698  44.7965130  21.4726620  33.4062720  44.0822093
  20.9338019  32.8891443  45.3990578  20.4488076  31.0846133  32.6315321
  20.7013597  30.5627654  31.8698784  19.5112635  30.9212278  32.7342004
  25.4931359  30.0881911  40.4390064  26.2794448  29.6701335  40.0880481
  25.7570063  30.9928004  40.6071712  25.6641436  35.5254762  35.1378721
  25.0287269  35.5989388  35.8499625  25.3338842  36.1148361  34.4597800
  30.8939786  30.0257145  41.3423042  31.6264958  29.4556361  41.5760872
  30.1379142  29.6378745  41.7829548  20.1684365  32.9874239  34.8339696
  20.0520623  32.3119142  35.5020780  20.2786625  32.5006613  34.0171849
  22.5115906  32.4484386  38.5386385  22.1474113  31.9215007  39.2499306
  23.3683021  32.0582855  38.3652870  28.4165206  23.7378719  45.8017651
  28.0848531  24.6074130  45.5778866  27.8210820  23.4215003  46.4811681
  22.1521393  27.4774286  33.5347733  22.3195795  28.3454522  33.9018204
  21.9618562  27.6401567  32.6109023  24.9096726  35.9391265  45.2013564
  24.6097449  36.8416303  45.0929371  24.5647785  35.6723448  46.0534717
  18.3609207  32.3905062  41.2350268  17.4359704  32.2581276  41.4427960
  18.6093620  33.1699281  41.7320211  28.3093870  28.4573805  42.8811001
  27.4010747  28.3889213  42.5869762  28.2581465  28.9345750  43.7092826
  22.1310613  29.9331943  34.5194400  22.0110239  30.3788994  35.3579880
  21.4363202  30.2817261  33.9607938  15.7218018  32.0338335  42.0694057
  15.8510399  32.2872814  42.9833469  15.0415470  32.6266043  41.7498712
  19.8917506  42.7035585  38.1684531  19.8141535  43.6543410  38.2473012
  19.2879149  42.3581458  38.8259458  22.3834735  29.8763450  50.8245898
  21.6068069  30.4357371  50.8148763  23.0225298  30.3620233  51.3460768
  30.1755516  26.6590243  44.6588875  29.5329896  26.9522776  44.0128670
  29.6710444  26.5443164  45.4642072  27.8295680  30.4053416  35.3474734
  28.7413536  30.6380803  35.1722432  27.3205327  30.9890461  34.7849813
  20.6381108  32.6848904  50.3863865  21.3795792  33.2233948  50.1098689
  19.9318093  33.3115193  50.5435417  26.1136447  34.8278044  48.9836027
  26.5219803  34.3860455  48.2390659  25.3913709  34.2530672  49.2370220
  22.4667517  29.7650651  46.3569584  23.3128712  30.1890065  46.5004233
  22.4066155  29.1084275  47.0508147  26.4365262  35.3879235  42.7388316
  25.8074124  35.5524949  42.0364384  26.0490924  35.8020844  43.5099280
  30.3154494  36.3233673  40.0932679  29.6305532  36.7032574  39.5429713
  30.3998343  36.9328999  40.8264627  25.6166963  27.4255019  48.0150757
  25.3727894  28.1797080  47.4785033  25.8926893  27.8040367  48.8498004
  27.5705425  33.9693632  46.6928023  27.7822321  34.6125392  46.0162404
  27.5235174  33.1355948  46.2249953  25.1731654  26.5811452  43.5964595
  24.3116133  26.8792706  43.8881333  25.1994089  26.7981851  42.6645628
  21.9893224  35.1253643  40.0038401  22.4531569  35.4041346  39.2143023
  21.7250022  34.2237088  39.8211491  18.8817305  34.6725125  42.9418164
  19.4518662  35.1012393  42.3035649  19.4725417  34.3907709  43.6402350
  20.9262110  31.2476795  36.8127966  21.6286153  31.6997839  37.2801892
  20.5942738  30.6060614  37.4407859  19.3742471  29.8388552  51.1879175
  18.7441132  30.5204833  51.4214572  19.2678559  29.7271634  50.2432314
  14.6687444  29.5060348  42.1145099  13.8786498  29.7617877  41.6385210
  15.1598691  30.3208686  42.2197140  16.6202189  29.8704927  39.0728576
  15.8233352  29.9823622  39.5912072  16.3927781  30.2091579  38.2069467
  22.4507857  36.3949630  47.0211091  22.5152289  36.8570038  47.8569263
  21.7418781  35.7646995  47.1493401  12.9525147  29.7590838  44.5460090
  13.2033185  30.6437848  44.8117666  13.4884695  29.5795440  43.7735182
  22.1655874  38.0617738  36.8890071  22.0301549  38.9069274  37.3174919
  22.7065687  38.2637016  36.1256005  18.6523214  24.1409318  53.5504426
  18.2590160  23.5875516  54.2252071  19.4689354  24.4519896  53.9410944
  15.6185272  35.5793176  37.4617996  16.1309792  36.3736426  37.6123561
  16.2707985  34.8819466  37.3951598  17.4280157  38.6958932  39.5440749
  17.6046785  39.6176897  39.3561733  18.2236990  38.3817351  39.9735129
  21.5691175  25.5567197  51.1424683  22.3100888  26.1574350  51.0629145
  21.8009098  24.8144835  50.5842725  16.7132513  30.7423564  49.4202913
  16.5986028  29.8408821  49.7210011  15.8577031  30.9887261  49.0687729
  18.5511472  40.2137106  45.5451092  19.1018897  40.0854169  44.7728086
  17.7122948  40.5131995  45.1945984  22.3478643  36.4788234  49.8895323
  22.8806980  35.7176522  49.6594631  21.8192724  36.1861886  50.6319477
  25.5148338  21.5848300  45.4188965  25.1712607  22.4749942  45.3428075
  25.8827301  21.3949957  44.5558550  13.5834189  33.9081830  38.2377567
  14.4209411  34.3178839  38.0211274  13.7612456  32.9681272  38.2077761
  25.4798621  31.5756911  33.9261400  24.9645244  32.3461516  34.1649787
  25.2075929  30.9022047  34.5494461  23.0645732  26.4206612  38.9846638
  22.2087328  26.0313462  38.8052277  23.4772684  26.4998573  38.1246424
  24.5944878  23.9552955  43.3838198  24.0909674  23.9183090  42.5706003
  24.8875485  24.8645698  43.4434854  20.8387764  24.0391685  42.3904380
  21.7040761  23.8434493  42.0310269  20.9065273  23.8102036  43.3173736
  30.4532895  34.3289266  35.8614573  29.6762338  33.9900425  35.4169735
  31.1324376  34.3341889  35.1869538  25.2684924  29.4484003  35.7521181
  24.9635059  29.7630152  36.6031324  26.2215366  29.5265423  35.7948514
  23.7131356  35.6074226  37.4014135  23.1852717  34.8726986  37.0887372
  23.2118858  36.3848903  37.1554103  28.6924202  33.8023247  42.5181181
  28.0347876  34.4922508  42.6061310  29.4964601  34.1919679  42.8615167
  18.4450083  26.2693893  39.7620746  19.0193835  26.0469074  39.0293939
  19.0321066  26.3382587  40.5149348  27.5029661  32.1567620  40.5685123
  28.0161542  32.7897611  41.0706833  28.1530884  31.5568815  40.2028483
  18.7719670  28.2998354  33.7816632  17.9356983  28.6373040  34.1025906
  18.6324440  28.1647333  32.8443769  20.7472751  23.1435142  38.4895816
  20.0937163  22.8284159  37.8652431  20.7053225  22.5210882  39.2155639
  21.8583956  33.4254437  30.4049108  20.9511018  33.1943690  30.6040257
  22.3554988  32.6292056  30.5923089  24.7652035  42.1351944  33.3245794
  24.0913734  42.4383641  33.9330752  25.1517857  42.9381024  32.9751251
  23.9810491  29.6317075  42.8143463  23.0633053  29.8532022  42.6565151
  24.3970635  29.7063386  41.9555171  24.7645539  31.0308491  37.9446144
  25.5117358  31.5429888  37.6353266  25.0337129  30.7092544  38.8050537
  23.0372189  33.5267032  34.9273098  22.1283409  33.2426064  35.0245568
  23.0667273  33.9466110  34.0676405  28.2691457  37.1373621  38.6964266
  27.8153784  36.2964531  38.7529456  27.6385423  37.7735019  39.0339046
  27.2124376  28.0665607  39.9264933  26.4747133  27.5542993  40.2575176
  27.4651150  27.6265989  39.1148210  26.7124396  38.9750118  39.6314084
  27.0047370  39.5355175  38.9126449  27.2223017  39.2678679  40.3867243
  27.3136004  20.8441859  40.5206702  27.6194880  19.9839222  40.2332617
  28.0388608  21.4359479  40.3205696  13.6060360  31.2472546  38.9088300
  13.4084760  30.6541906  38.1839367  13.0507024  30.9424756  39.6264239
  21.5857083  31.1395652  41.0282893  21.6405693  30.1869489  40.9525370
  20.7748285  31.2955091  41.5124192  22.7348277  35.0675775  32.2661177
  22.2967707  34.3511634  31.8066814  23.4758718  35.2951890  31.7046268
  19.5249443  29.7572712  38.7873272  18.7117309  30.0566882  39.1938464
  20.0208437  29.3628401  39.5047754  21.6758021  39.7530469  40.7207537
  21.6334200  39.9791315  39.7916069  22.5920720  39.5193843  40.8693338
  25.1223655  30.2214536  47.6188166  25.4773043  30.4486009  48.4782632
  25.7695786  30.5532913  46.9965421  30.8521392  33.3432972  38.3237495
  30.7139291  33.5334568  37.3958684  30.4957611  34.1052355  38.7805546
  19.0163518  27.3291067  44.4034507  19.6562897  27.1879826  43.7057470
  18.1841049  27.0425581  44.0273109  19.7923822  36.6293498  40.5169500
  20.5864420  36.1343818  40.3152075  19.0815514  36.1011361  40.1537205
  24.6118666  39.0111593  44.8681867  24.6655689  39.5802530  45.6359583
  23.7433448  39.1813478  44.5035904  16.1006585  30.7736580  36.5929252
  15.1704174  30.7121035  36.8099214  16.1964057  30.2512532  35.7965894
  16.0192134  27.2991392  39.1807494  16.2798952  28.2136726  39.0716654
  16.8409307  26.8315835  39.3304107  17.4917060  28.7129150  46.3506318
  18.1640113  28.5046512  45.7018967  16.6646846  28.5151236  45.9111551
  23.3942632  25.3391090  48.3671979  22.7470547  26.0381040  48.2736456
  24.1643647  25.7727234  48.7348228  23.5706766  33.1771855  46.4268799
  24.4998826  33.3283015  46.2537766  23.1497796  33.2655876  45.5717446
  22.3695098  37.2022520  44.1967337  22.2306184  36.8341304  45.0693275
  21.5809694  37.7170159  44.0251294  22.9643250  42.3031616  35.5392873
  23.1395006  41.8319659  36.3538496  22.2776038  42.9297382  35.7674134
  23.9200313  36.5804122  41.5856174  23.5850146  36.5404892  42.4813824
  23.4204259  35.9148838  41.1126585  17.8944557  31.9871753  47.1108756
  17.7564355  31.2551991  47.7120295  18.8049481  31.8980653  46.8292943
  26.8559505  33.9260157  31.8593234  26.2388675  33.2006985  31.7626287
  26.3875993  34.6869517  31.5160308  20.5226858  31.6991712  46.5992435
  21.2326476  31.0584904  46.5579054  20.4796166  31.9504607  47.5218616
  19.2355792  28.6856930  48.4188075  18.6993149  28.2347668  49.0709671
  18.6472500  28.8202839  47.6758539  17.5304335  45.4520979  42.3132733
  17.7700933  46.0839503  42.9911752  16.6873532  45.1009019  42.5998093
  18.6458051  28.1445581  30.9814538  17.7687517  28.0234382  30.6176785
  19.1215804  27.3531659  30.7293427  10.1660191  32.9322741  41.0756046
  10.8531231  32.6184471  40.4877061  10.0108320  33.8364105  40.8023297
  14.9694913  27.8212937  45.5041069  14.8853102  27.2138607  44.7691479
  14.1477619  28.3121956  45.5050566  22.0432197  41.2600101  44.7174237
  21.9702369  42.0655073  45.2293542  21.6009590  41.4592067  43.8922259
  21.8321977  40.4971871  38.2277059  21.0489499  41.0393552  38.3215283
  22.5314722  41.0145851  38.6271300  25.1418627  26.3066501  40.8711264
  25.6387326  25.5536463  40.5512335  24.3705608  26.3430818  40.3054474
  24.5030881  41.1586935  46.8732396  25.2158853  41.7934400  46.8008297
  24.0120909  41.2550801  46.0572398  26.2248408  35.0638188  38.4449688
  25.2904686  35.1839651  38.2754392  26.4025076  34.1610655  38.1809698
  21.7253596  28.4483884  40.5982949  21.3551383  27.8954924  41.2863854
  22.2212688  27.8442017  40.0457949  29.6120959  30.9055507  38.9799722
  30.0781411  31.7383499  38.9060025  30.0628459  30.4400489  39.6844980
  19.5542794  38.9081379  47.6937967  20.2552254  39.5417862  47.8467361
  19.0837909  39.2496110  46.9333606  27.6797190  37.2499329  35.9785874
  27.9557034  37.1355923  36.8879748  26.8101689  36.8516814  35.9398047
  27.5837622  23.2736094  43.0190623  26.6700701  23.5040321  43.1872830
  28.0130723  23.3574538  43.8704656  27.3544080  31.4625986  45.5190517
  26.7015530  31.7101894  44.8642970  27.7324460  30.6490125  45.1852994
  24.3151254  41.4985680  39.6218688  24.4973649  40.6807336  40.0846440
  25.1384240  41.7153372  39.1843577  24.6493419  40.4253865  36.8833736
  25.1781186  39.9146319  36.2703898  24.9121639  40.1096395  37.7479269
  23.4031653  32.2045797  52.0056554  22.7272290  32.1039927  52.6758930
  24.2259287  32.0485011  52.4692552  15.1510512  38.4417734  44.6269070
  15.7363949  37.6961422  44.7596974  14.9535351  38.7521691  45.5105733
  18.0049167  41.4768981  39.6431512  17.3359543  41.9615109  39.1595552
  17.8662037  41.7238202  40.5574890   9.7428167  31.0123334  43.3473513
   9.7812266  30.4786925  44.1410631   9.2368460  30.4858540  42.7284490
  22.1454436  43.5112725  46.2414170  22.6972744  43.6744346  47.0063256
  22.4860629  44.1017163  45.5694195  17.1218929  25.8587875  46.8436055
  17.1860256  26.7202706  46.4313453  17.0586049  25.2461876  46.1108414
  16.5971202  27.9311007  50.4909089  17.2243241  27.5488085  51.1046614
  15.7399121  27.7125209  50.8564782  13.3736745  29.7387436  36.4227444
  13.6690186  28.8298115  36.3694498  12.4724780  29.7175176  36.1008446
  25.2822823  41.4594700  43.2277852  25.1573963  40.6584440  42.7188798
  25.9401914  41.9540894  42.7391822  16.9030992  27.8143433  42.4054993
  16.1817577  28.4279401  42.2662466  17.6924247  28.3501198  42.3271639
  27.3457732  39.2603721  44.8557403  26.3988067  39.1409072  44.7835729
  27.6940505  38.3726219  44.9383664  19.7057305  25.1497859  48.6795644
  20.2291707  25.3960156  49.4421954  19.4869638  25.9817894  48.2598782
  15.1024586  27.4201534  36.5466769  14.7737292  26.5398913  36.3641875
  15.4563957  27.3649203  37.4343158  24.3504165  39.0556437  41.0561755
  24.2029127  38.1273144  41.2369325  25.1757658  39.0776527  40.5718830
  18.2166409  27.7074504  36.9142247  18.5562482  28.2360425  36.1920855
  18.6638530  28.0454910  37.6900813  27.9538287  39.8784995  42.1426628
  28.8784834  39.6727857  42.0051079  27.7853590  39.6301397  43.0515969
  20.9109850  26.0911555  46.3645315  20.5706670  25.2919368  46.7665995
  20.2048856  26.3913265  45.7922148  21.5626322  23.1760867  44.8172638
  22.3852391  22.7021345  44.6951528  21.8064385  23.9551351  45.3171324
  20.2034556  26.2049125  35.1135540  20.9242919  26.5830378  34.6099257
  19.5799861  26.9238002  35.2170518  24.3465679  26.9094274  36.0493872
  24.5629294  27.7918912  35.7482700  23.8659746  26.5180488  35.3199514
  19.0864901  29.8679988  42.6264617  18.9409481  30.1820291  43.5188898
  18.6090104  30.4864888  42.0735515  20.9461284  26.8582536  42.6745506
  20.9322852  25.9623629  42.3377804  21.6633712  26.8653199  43.3083792
  22.7987414  27.2919876  44.7198634  22.5405192  28.2136946  44.7182964
  22.2672455  26.8950310  45.4099098  27.7433603  40.3970663  37.4988719
  27.9170481  39.8317085  36.7462571  28.2362494  41.1971558  37.3168209
  13.5610563  32.4085332  45.5652278  13.0164031  33.1845140  45.6972552
  14.4389913  32.7556136  45.4071399  20.3498179  25.7396916  37.9433076
  20.4714091  24.8113562  38.1423964  20.0600222  25.7535602  37.0311392
  23.2189370  23.4251826  41.0799796  23.2411067  23.4891159  40.1251776
  23.6357429  22.5856335  41.2740302  33.5972994  33.1607086  39.1179019
  34.0404140  32.4114411  38.7198142  32.7199504  33.1517222  38.7352751
  28.7308776  39.7137427  34.5985617  29.4259680  40.3344120  34.8172932
  29.0731926  38.8632779  34.8737995  14.3476585  31.5355228  48.4582435
  13.6058321  31.6837864  49.0447065  14.0269329  31.7963494  47.5949184
  30.6300199  37.1637133  36.1272948  31.1551523  37.5024406  35.4022268
  30.5422551  36.2284148  35.9436083  22.2920247  41.0771206  48.2562825
  22.6007374  40.8320353  49.1285524  23.0895729  41.2817845  47.7681695
  22.3140859  43.2309116  40.4868201  21.8745850  42.7385495  41.1801058
  23.0648976  42.6882084  40.2460276  14.7933198  39.4220657  40.4892829
  15.6191218  39.1224429  40.1091473  14.4427250  38.6528279  40.9382618
  19.7614732  38.7747125  42.5590503  19.1394741  38.1117830  42.2592731
  20.4319598  38.8008257  41.8764151  12.9941803  37.3406983  41.4481763
  12.1573712  36.9129158  41.2665764  12.9665449  37.5339427  42.3852554
  19.8339259  27.2528913  52.1523009  19.8827414  28.1291036  51.7700778
  20.3761773  26.7106306  51.5794652  19.3228238  37.3251049  36.0348963
  19.4716359  38.0086513  35.3815636  20.1294682  37.3056139  36.5498419
  27.7295742  30.6293431  50.0616181  28.6305605  30.4899896  49.7700179
  27.8043717  30.7947886  51.0014359  22.0638547  28.0060286  48.9069368
  21.1941857  28.2993852  48.6351956  22.2998028  28.5900731  49.6276631
  30.1897365  32.1892059  47.4578954  30.6651486  32.3819705  46.6497805
  29.2662930  32.2451245  47.2122338  17.0780871  33.3516226  37.0410032
  16.8326913  32.4478556  37.2390242  17.2476786  33.3533377  36.0989510
  24.7677581  24.2239903  46.4234788  25.2859525  24.9600929  46.0981276
  24.4132714  24.5303896  47.2581547  16.3476519  29.0844584  34.5396194
  15.6545764  29.1588939  33.8836230  16.1028271  28.3204927  35.0617711
  25.0190175  20.6440185  41.9435685  25.2991929  19.9763374  42.5696111
  25.8040782  20.8369281  41.4310348  22.8223644  39.8199179  33.5060711
  22.2497611  40.4389366  33.0531183  23.3956438  40.3698541  34.0400633
  28.8899034  29.0657819  45.6907260  29.8416457  29.1655917  45.7119484
  28.7202484  28.2736088  46.2005344  26.9113413  26.1513402  45.8766661
  26.3163345  26.4318415  45.1813149  26.6263110  26.6407303  46.6483402
  26.0420904  40.1036329  34.6369293  26.9751577  40.0381891  34.8402169
  25.9544117  40.9392596  34.1783826  28.6708920  39.4202199  31.5973241
  28.5922552  39.0862063  32.4908999  29.4918587  39.9123967  31.5964713
  31.3687112  32.2863939  44.8049559  31.3363432  31.3479940  44.9909243
  31.9787735  32.3647975  44.0715384  23.2070442  31.1559992  30.8476763
  24.1529547  31.0266200  30.9165181  22.8284687  30.4174654  31.3246191
  31.5181600  29.0774982  44.8507842  31.0020649  28.2933439  44.6637771
  32.4021549  28.7493699  45.0154362  29.1792327  22.8215998  40.8103655
  28.9817148  22.5131086  41.6946987  29.7892033  23.5477637  40.9401585
  23.0909135  35.2077738  52.3077420  24.0112144  35.3856337  52.5017467
  23.0558718  34.2633783  52.1557120  21.3913360  29.0809968  30.7831649
  20.4844815  28.7843081  30.8594362  21.6689341  28.7839786  29.9165935
  12.3091300  30.4016332  41.2330695  11.9894084  29.5481640  40.9405069
  11.7624728  30.6164910  41.9888662  16.0871208  33.1178773  44.9500201
  16.3057217  34.0495880  44.9688235  16.4996981  32.7586747  45.7355005
  23.0075425  23.6246858  36.9375890  22.1976154  23.2793943  37.3131136
  23.6959842  23.3154402  37.5263501  24.9365974  22.7024905  38.5600186
  25.4897012  23.1220358  39.2190210  25.1736060  21.7760653  38.6023142
  20.9599073  28.6911978  54.3402950  20.8595800  29.6406335  54.2715041
  20.7420615  28.3630217  53.4679020  20.1612144  25.9396903  30.9243628
  21.0231308  26.2651802  31.1839445  20.3462488  25.1528399  30.4116694
  12.1779560  34.0219243  43.2023817  11.4843031  33.6073196  42.6893771
  12.9252551  34.0639780  42.6057235  28.3144781  24.8125430  38.0678851
  27.7343450  25.4710234  37.6856903  28.0480713  23.9902774  37.6566268
  26.7648347  24.2130488  40.2700171  27.2648125  24.3247022  39.4614490
  27.4083955  23.9091540  40.9100980  20.8230343  32.1209117  53.1568012
  20.3397425  32.9209477  53.3631901  20.9091282  32.1317062  52.2035456
  14.0916303  33.9537497  41.0789831  14.0686991  34.0525184  40.1271715
  14.4016939  34.8002648  41.4006998  16.7503680  36.0113652  45.1936446
  17.7046934  35.9797594  45.1266377  16.5516204  35.5504276  46.0086672
  17.3403063  34.5814768  47.7607244  18.1595952  35.0758847  47.7842081
  17.6139870  33.6646736  47.7324811  27.0969659  26.9725520  37.1235199
  26.2095514  27.2575171  36.9055394  27.5123648  26.8119284  36.2762476
  30.4484195  26.9972041  40.8389538  31.2244585  27.4868494  41.1114155
  29.7232329  27.4230095  41.2961408  32.8856753  27.7099660  41.8963479
  33.4801244  27.4695396  41.1856787  32.9583337  26.9906791  42.5237015
  15.1053909  41.5533271  42.2106644  14.9708377  40.7933672  41.6444642
  14.6885971  42.2774171  41.7435433  26.2412872  36.7370195  31.2183219
  26.9448722  36.9420197  31.8340875  25.5175521  37.3046957  31.4832303
  27.0710682  32.4880056  37.3385489  27.0145884  32.9448608  36.4993122
  27.6239025  31.7270741  37.1608332  30.8815488  28.2769788  38.1635609
  30.6252423  27.8766424  38.9943816  30.2568356  28.9913582  38.0385748
  35.1927826  31.0165861  40.6706900  34.6327384  31.0859051  41.4438462
  34.5871330  30.8406846  39.9506396  18.2623035  42.4502588  42.4225086
  18.1455419  43.3948021  42.3203777  17.4415481  42.1476150  42.8110886
  28.1499570  37.1752724  33.2681679  28.9845174  36.7433923  33.0859154
  27.9883913  37.0034738  34.1958574  27.8045462  33.6784837  34.6338018
  27.7494266  33.5129109  33.6926462  27.1791517  34.3860870  34.7900208
  12.5937977  28.9152902  48.4599441  13.2396840  28.4051856  48.9486666
  12.3855128  29.6521583  49.0342866  21.1141587  23.1792946  34.2123337
  21.1020257  24.1234786  34.3691608  22.0065009  22.9963092  33.9182798
  19.2877549  43.1030850  45.6381015  20.1904796  43.1354461  45.9547510
  19.0614919  42.1731301  45.6527351  21.0431151  41.8561837  42.2991093
  20.0926782  41.8563698  42.1855466  21.3463637  41.1094571  41.7827128
  24.9293707  19.7735723  38.4669274  24.1626103  19.2194210  38.6125956
  25.3404412  19.8457592  39.3283425  16.9335468  26.0620519  52.5574455
  17.7966929  25.7057324  52.7677779  16.3600878  25.7234414  53.2449859
  33.5873551  47.6449803  43.2998381  33.2492063  47.5290868  42.4118915
  34.4563319  47.2440968  43.2799387  29.4460367  49.4985280  39.2895271
  28.8825232  49.4075217  38.5211559  29.3312762  48.6785184  39.7697764
  26.9924799  50.9936471  42.1279492  27.7846091  50.6527296  41.7125791
  27.2321449  51.1031446  43.0481645  35.0259925  53.1656247  34.6009736
  34.3747905  53.7510328  34.2143750  35.8204288  53.6962442  34.6604774
  28.9515553  50.2545385  34.9996871  29.7246429  49.7074372  34.8609747
  29.3040951  51.1189634  35.2111332  30.7900595  51.5821767  48.2063770
  30.4990461  52.4867398  48.0910436  31.4257579  51.6238294  48.9207840
  31.7156802  48.9598615  44.7965130  32.3120374  48.7354638  44.0822093
  31.7731774  48.2183361  45.3990578  31.2881830  46.4138051  32.6315321
  31.5407351  45.8919572  31.8698784  30.3506389  46.2504196  32.7342004
  36.3325113  45.4173829  40.4390064  37.1188202  44.9993252  40.0880481
  36.5963818  46.3219921  40.6071712  36.5035191  50.8546679  35.1378721
  35.8681024  50.9281306  35.8499625  36.1732597  51.4440278  34.4597800
  31.0078119  48.3166157  34.8339696  30.8914377  47.6411060  35.5020780
  31.1180379  47.8298531  34.0171849  33.3509660  47.7776304  38.5386385
  32.9867867  47.2506925  39.2499306  34.2076776  47.3874773  38.3652870
  32.9915147  42.8066203  33.5347733  33.1589549  43.6746440  33.9018204
  32.8012316  42.9693485  32.6109023  29.2002962  47.7196979  41.2350268
  28.2753458  47.5873193  41.4427960  29.4487375  48.4991198  41.7320211
  32.9704368  45.2623861  34.5194400  32.8503993  45.7080912  35.3579880
  32.2756956  45.6109179  33.9607938  26.5611773  47.3630253  42.0694057
  26.6904154  47.6164732  42.9833469  25.8809224  47.9557961  41.7498712
  30.7311260  58.0327503  38.1684531  30.6535290  58.9835328  38.2473012
  30.1272904  57.6873375  38.8259458  38.6689434  45.7345334  35.3474734
  39.5807290  45.9672721  35.1722432  38.1599081  46.3182378  34.7849813
  33.3061272  45.0942569  46.3569584  34.1522467  45.5181982  46.5004233
  33.2459909  44.4376193  47.0508147  32.8286978  50.4545561  40.0038401
  33.2925324  50.7333264  39.2143023  32.5643776  49.5529005  39.8211491
  29.7211059  50.0017042  42.9418164  30.2912416  50.4304311  42.3035649
  30.3119171  49.7199627  43.6402350  31.7655864  46.5768713  36.8127966
  32.4679908  47.0289757  37.2801892  31.4336493  45.9352532  37.4407859
  25.5081198  44.8352266  42.1145099  24.7180252  45.0909794  41.6385210
  25.9992446  45.6500604  42.2197140  27.4595944  45.1996845  39.0728576
  26.6627107  45.3115539  39.5912072  27.2321536  45.5383497  38.2069467
  23.7918901  45.0882756  44.5460090  24.0426940  45.9729766  44.8117666
  24.3278450  44.9087358  43.7735182  33.0049629  53.3909656  36.8890071
  32.8695304  54.2361191  37.3174919  33.5459441  53.5928933  36.1256005
  26.4579026  50.9085094  37.4617996  26.9703547  51.7028344  37.6123561
  27.1101739  50.2111384  37.3951598  28.2673911  54.0250850  39.5440749
  28.4440539  54.9468815  39.3561733  29.0630745  53.7109269  39.9735129
  29.3905226  55.5429024  45.5451092  29.9412652  55.4146087  44.7728086
  28.5516702  55.8423913  45.1945984  24.4227943  49.2373748  38.2377567
  25.2603165  49.6470756  38.0211274  24.6006211  48.2973190  38.2077761
  36.3192375  46.9048829  33.9261400  35.8038999  47.6753433  34.1649787
  36.0469684  46.2313965  34.5494461  33.9039486  41.7498529  38.9846638
  33.0481083  41.3605380  38.8052277  34.3166438  41.8290490  38.1246424
  41.2926649  49.6581183  35.8614573  40.5156092  49.3192343  35.4169735
  41.9718130  49.6633806  35.1869538  36.1078678  44.7775921  35.7521181
  35.8028814  45.0922070  36.6031324  37.0609121  44.8557341  35.7948514
  34.5525110  50.9366144  37.4014135  34.0246472  50.2018904  37.0887372
  34.0512613  51.7140820  37.1554103  29.2843838  41.5985810  39.7620746
  29.8587590  41.3760992  39.0293939  29.8714820  41.6674505  40.5149348
  29.6113425  43.6290271  33.7816632  28.7750737  43.9664958  34.1025906
  29.4718195  43.4939251  32.8443769  31.5866506  38.4727059  38.4895816
  30.9330918  38.1576076  37.8652431  31.5446980  37.8502800  39.2155639
  32.6977710  48.7546354  30.4049108  31.7904772  48.5235608  30.6040257
  33.1948742  47.9583974  30.5923089  35.6045789  57.4643861  33.3245794
  34.9307488  57.7675558  33.9330752  35.9911611  58.2672942  32.9751251
  34.8204246  44.9608993  42.8143463  33.9026807  45.1823940  42.6565151
  35.2364390  45.0355303  41.9555171  35.6039294  46.3600408  37.9446144
  36.3511113  46.8721806  37.6353266  35.8730883  46.0384461  38.8050537
  33.8765944  48.8558949  34.9273098  32.9677163  48.5717982  35.0245568
  33.9061028  49.2758028  34.0676405  37.5518150  54.3042035  39.6314084
  37.8441125  54.8647092  38.9126449  38.0616771  54.5970596  40.3867243
  24.4454114  46.5764463  38.9088300  24.2478514  45.9833824  38.1839367
  23.8900778  46.2716673  39.6264239  32.4250838  46.4687570  41.0282893
  32.4799448  45.5161406  40.9525370  31.6142040  46.6247009  41.5124192
  33.5742032  50.3967693  32.2661177  33.1361462  49.6803552  31.8066814
  34.3152473  50.6243808  31.7046268  30.3643198  45.0864630  38.7873272
  29.5511063  45.3858800  39.1938464  30.8602192  44.6920318  39.5047754
  32.5151776  55.0822386  40.7207537  32.4727954  55.3083233  39.7916069
  33.4314475  54.8485761  40.8693338  30.6317576  51.9585415  40.5169500
  31.4258175  51.4635736  40.3152075  29.9209269  51.4303279  40.1537205
  26.9400340  46.1028497  36.5929252  26.0097928  46.0412953  36.8099214
  27.0357812  45.5804450  35.7965894  26.8585889  42.6283310  39.1807494
  27.1192706  43.5428643  39.0716654  27.6803061  42.1607753  39.3304107
  28.3310814  44.0421067  46.3506318  29.0033868  43.8338429  45.7018967
  27.5040601  43.8443153  45.9111551  33.2088852  52.5314437  44.1967337
  33.0699938  52.1633222  45.0693275  32.4203449  53.0462077  44.0251294
  33.8037004  57.6323534  35.5392873  33.9788760  57.1611577  36.3538496
  33.1169792  58.2589300  35.7674134  34.7594068  51.9096040  41.5856174
  34.4243900  51.8696810  42.4813824  34.2598013  51.2440756  41.1126585
  28.7338312  47.3163670  47.1108756  28.5958110  46.5843909  47.7120295
  29.6443235  47.2272570  46.8292943  37.6953259  49.2552074  31.8593234
  37.0782430  48.5298903  31.7626287  37.2269748  50.0161435  31.5160308
  31.3620612  47.0283630  46.5992435  32.0720231  46.3876822  46.5579054
  31.3189920  47.2796524  47.5218616  28.3698090  60.7812897  42.3132733
  28.6094688  61.4131421  42.9911752  27.5267286  60.4300937  42.5998093
  29.4851805  43.4737499  30.9814538  28.6081271  43.3526300  30.6176785
  29.9609558  42.6823577  30.7293427  21.0053945  48.2614659  41.0756046
  21.6924985  47.9476389  40.4877061  20.8502074  49.1656023  40.8023297
  25.8088667  43.1504855  45.5041069  25.7246856  42.5430525  44.7691479
  24.9871374  43.6413873  45.5050566  32.8825952  56.5892019  44.7174237
  32.8096123  57.3946991  45.2293542  32.4403345  56.7883985  43.8922259
  32.6715731  55.8263789  38.2277059  31.8883253  56.3685469  38.3215283
  33.3708476  56.3437769  38.6271300  35.3424635  56.4878853  46.8732396
  36.0552607  57.1226318  46.8008297  34.8514664  56.5842719  46.0572398
  37.0642162  50.3930106  38.4449688  36.1298441  50.5131568  38.2754392
  37.2418830  49.4902573  38.1809698  32.5647350  43.7775802  40.5982949
  32.1945138  43.2246842  41.2863854  33.0606443  43.1733935  40.0457949
  30.3936549  54.2373297  47.6937967  31.0946008  54.8709780  47.8467361
  29.9231664  54.5788028  46.9333606  38.5190944  52.5791246  35.9785874
  38.7950788  52.4647841  36.8879748  37.6495443  52.1808731  35.9398047
  35.1545008  56.8277597  39.6218688  35.3367403  56.0099253  40.0846440
  35.9777994  57.0445290  39.1843577  35.4887174  55.7545782  36.8833736
  36.0174940  55.2438237  36.2703898  35.7515394  55.4388313  37.7479269
  25.9904267  53.7709652  44.6269070  26.5757704  53.0253340  44.7596974
  25.7929105  54.0813608  45.5105733  28.8442922  56.8060899  39.6431512
  28.1753297  57.2907027  39.1595552  28.7055792  57.0530120  40.5574890
  20.5821921  46.3415252  43.3473513  20.6206021  45.8078843  44.1410631
  20.0762214  45.8150457  42.7284490  32.9848191  58.8404643  46.2414170
  33.5366499  59.0036264  47.0063256  33.3254384  59.4309080  45.5694195
  24.2130499  45.0679354  36.4227444  24.5083940  44.1590032  36.3694498
  23.3118535  45.0467093  36.1008446  36.1216578  56.7886618  43.2277852
  35.9967717  55.9876358  42.7188798  36.7795669  57.2832811  42.7391822
  27.7424746  43.1435351  42.4054993  27.0211332  43.7571318  42.2662466
  28.5318002  43.6793115  42.3271639  25.9418341  42.7493452  36.5466769
  25.6131047  41.8690831  36.3641875  26.2957711  42.6941120  37.4343158
  35.1897919  54.3848354  41.0561755  35.0422882  53.4565062  41.2369325
  36.0151413  54.4068445  40.5718830  29.0560164  43.0366421  36.9142247
  29.3956236  43.5652343  36.1920855  29.5032284  43.3746828  37.6900813
  38.7932041  55.2076913  42.1426628  39.7178589  55.0019774  42.0051079
  38.6247345  54.9593314  43.0515969  31.0428311  41.5341043  35.1135540
  31.7636673  41.9122296  34.6099257  30.4193615  42.2529920  35.2170518
  35.1859434  42.2386192  36.0493872  35.4023048  43.1210830  35.7482700
  34.7053501  41.8472405  35.3199514  29.9258655  45.1971905  42.6264617
  29.7803236  45.5112208  43.5188898  29.4483859  45.8156806  42.0735515
  38.5827358  55.7262581  37.4988719  38.7564235  55.1609003  36.7462571
  39.0756249  56.5263475  37.3168209  24.4004317  47.7377250  45.5652278
  23.8557785  48.5137058  45.6972552  25.2783667  48.0848054  45.4071399
  31.1891934  41.0688834  37.9433076  31.3107845  40.1405480  38.1423964
  30.8993976  41.0827520  37.0311392  39.5702530  55.0429345  34.5985617
  40.2653435  55.6636038  34.8172932  39.9125680  54.1924696  34.8737995
  25.1870339  46.8647146  48.4582435  24.4452075  47.0129781  49.0447065
  24.8663083  47.1255412  47.5949184  33.1314002  56.4063124  48.2562825
  33.4401128  56.1612271  49.1285524  33.9289484  56.6109763  47.7681695
  33.1534614  58.5601034  40.4868201  32.7139604  58.0677412  41.1801058
  33.9042731  58.0174001  40.2460276  25.6326953  54.7512575  40.4892829
  26.4584973  54.4516347  40.1091473  25.2821005  53.9820197  40.9382618
  30.6008486  54.1039043  42.5590503  29.9788495  53.4409748  42.2592731
  31.2713353  54.1300175  41.8764151  23.8335558  52.6698901  41.4481763
  22.9967466  52.2421075  41.2665764  23.8059203  52.8631344  42.3852554
  30.1621993  52.6542966  36.0348963  30.3110113  53.3378431  35.3815636
  30.9688436  52.6348056  36.5498419  27.9174626  48.6808144  37.0410032
  27.6720668  47.7770474  37.2390242  28.0870540  48.6825294  36.0989510
  27.1870273  44.4136501  34.5396194  26.4939518  44.4880856  33.8836230
  26.9422025  43.6496845  35.0617711  33.6617398  55.1491097  33.5060711
  33.0891366  55.7681284  33.0531183  34.2350192  55.6990458  34.0400633
  36.8814658  55.4328247  34.6369293  37.8145331  55.3673808  34.8402169
  36.7937871  56.2684514  34.1783826  39.5102675  54.7494117  31.5973241
  39.4316306  54.4153981  32.4908999  40.3312342  55.2415885  31.5964713
  34.0464197  46.4851909  30.8476763  34.9923302  46.3558118  30.9165181
  33.6678442  45.7466571  31.3246191  32.2307114  44.4101886  30.7831649
  31.3238570  44.1134999  30.8594362  32.5083095  44.1131704  29.9165935
  23.1485054  45.7308249  41.2330695  22.8287839  44.8773557  40.9405069
  22.6018483  45.9456827  41.9888662  26.9264962  48.4470690  44.9500201
  27.1450972  49.3787798  44.9688235  27.3390736  48.0878665  45.7355005
  33.8469180  38.9538776  36.9375890  33.0369908  38.6085861  37.3131136
  34.5353597  38.6446319  37.5263501  35.7759728  38.0316822  38.5600186
  36.3290767  38.4512276  39.2190210  36.0129814  37.1052570  38.6023142
  31.0005899  41.2688821  30.9243628  31.8625063  41.5943719  31.1839445
  31.1856243  40.4820317  30.4116694  23.0173314  49.3511161  43.2023817
  22.3236786  48.9365114  42.6893771  23.7646305  49.3931697  42.6057235
  24.9310057  49.2829415  41.0789831  24.9080745  49.3817102  40.1271715
  25.2410694  50.1294565  41.4006998  27.5897435  51.3405570  45.1936446
  28.5440688  51.3089512  45.1266377  27.3909958  50.8796193  46.0086672
  28.1796817  49.9106686  47.7607244  28.9989706  50.4050764  47.7842081
  28.4533625  48.9938654  47.7324811  37.9363413  42.3017438  37.1235199
  37.0489268  42.5867089  36.9055394  38.3517402  42.1411201  36.2762476
  25.9447664  56.8825189  42.2106644  25.8102132  56.1225590  41.6444642
  25.5279726  57.6066089  41.7435433  37.0806627  52.0662113  31.2183219
  37.7842477  52.2712115  31.8340875  36.3569275  52.6338874  31.4832303
  37.9104437  47.8171974  37.3385489  37.8539638  48.2740525  36.4993122
  38.4632779  47.0562658  37.1608332  29.1016790  57.7794506  42.4225086
  28.9849174  58.7239939  42.3203777  28.2809236  57.4768068  42.8110886
  38.9893324  52.5044642  33.2681679  39.8238928  52.0725840  33.0859154
  38.8277667  52.3326655  34.1958574  38.6439216  49.0076755  34.6338018
  38.5888020  48.8421026  33.6926462  38.0185272  49.7152788  34.7900208
  23.4331731  44.2444819  48.4599441  24.0790595  43.7343773  48.9486666
  23.2248882  44.9813501  49.0342866  31.9535342  38.5084864  34.2123337
  31.9414012  39.4526704  34.3691608  32.8458764  38.3255009  33.9182798
  30.1271304  58.4322768  45.6381015  31.0298550  58.4646378  45.9547510
  29.9008674  57.5023219  45.6527351  31.8824906  57.1853754  42.2991093
  30.9320537  57.1855616  42.1855466  32.1857392  56.4386489  41.7827128
  35.7687461  35.1027641  38.4669274  35.0019857  34.5486127  38.6125956
  36.1798166  35.1749509  39.3283425  39.7909307  65.5837302  34.9996871
  40.5640183  65.0366289  34.8609747  40.1434706  66.4481552  35.2111332
  42.1275585  61.7429968  32.6315321  42.3801106  61.2211490  31.8698784
  41.1900144  61.5796114  32.7342004  43.8308902  58.1358121  33.5347733
  43.9983304  59.0038358  33.9018204  43.6406071  58.2985403  32.6109023
  43.8098122  60.5915779  34.5194400  43.6897748  61.0372829  35.3579880
  43.1150711  60.9401096  33.9607938  36.3474953  60.1644183  42.1145099
  35.5574007  60.4201712  41.6385210  36.8386200  60.9792521  42.2197140
  38.2989698  60.5288763  39.0728576  37.5020861  60.6407457  39.5912072
  38.0715290  60.8675415  38.2069467  34.6312656  60.4174674  44.5460090
  34.8820694  61.3021684  44.8117666  35.1672204  60.2379275  43.7735182
  37.2972781  66.2377011  37.4617996  37.8097301  67.0320262  37.6123561
  37.9495494  65.5403302  37.3951598  35.2621698  64.5665666  38.2377567
  36.0996920  64.9762674  38.0211274  35.4399965  63.6265108  38.2077761
  40.4507179  58.9582189  33.7816632  39.6144492  59.2956876  34.1025906
  40.3111949  58.8231169  32.8443769  35.2847869  61.9056381  38.9088300
  35.0872269  61.3125742  38.1839367  34.7294533  61.6008591  39.6264239
  41.2036952  60.4156547  38.7873272  40.3904818  60.7150718  39.1938464
  41.6995946  60.0212236  39.5047754  37.7794094  61.4320415  36.5929252
  36.8491683  61.3704870  36.8099214  37.8751566  60.9096368  35.7965894
  37.6979643  57.9575228  39.1807494  37.9586461  58.8720561  39.0716654
  38.5196816  57.4899670  39.3304107  40.3245560  58.8029416  30.9814538
  39.4475026  58.6818217  30.6176785  40.8003313  58.0115495  30.7293427
  31.8447700  63.5906576  41.0756046  32.5318740  63.2768306  40.4877061
  31.6895828  64.4947941  40.8023297  31.4215676  61.6707170  43.3473513
  31.4599775  61.1370760  44.1410631  30.9155969  61.1442375  42.7284490
  35.0524254  60.3971272  36.4227444  35.3477695  59.4881950  36.3694498
  34.1512289  60.3759011  36.1008446  36.7812095  58.0785369  36.5466769
  36.4524801  57.1982748  36.3641875  37.1351466  58.0233038  37.4343158
  39.8953918  58.3658339  36.9142247  40.2349991  58.8944260  36.1920855
  40.3426039  58.7038745  37.6900813  36.0264094  62.1939064  48.4582435
  35.2845830  62.3421699  49.0447065  35.7056838  62.4547329  47.5949184
  34.6729312  67.9990819  41.4481763  33.8361221  67.5712993  41.2665764
  34.6452958  68.1923262  42.3852554  38.7568380  64.0100062  37.0410032
  38.5114422  63.1062392  37.2390242  38.9264295  64.0117212  36.0989510
  38.0264028  59.7428419  34.5396194  37.3333273  59.8172774  33.8836230
  37.7815780  58.9788763  35.0617711  43.0700869  59.7393804  30.7831649
  42.1632324  59.4426916  30.8594362  43.3476850  59.4423622  29.9165935
  33.9878809  61.0600167  41.2330695  33.6681593  60.2065475  40.9405069
  33.4412237  61.2748745  41.9888662  41.8399653  56.5980739  30.9243628
  42.7018817  56.9235637  31.1839445  42.0249997  55.8112235  30.4116694
  33.8567069  64.6803078  43.2023817  33.1630540  64.2657031  42.6893771
  34.6040060  64.7223615  42.6057235  34.2725486  59.5736737  48.4599441
  34.9184349  59.0635691  48.9486666  34.0642637  60.3105419  49.0342866
  63.1481462  83.1512886  36.1272948  63.6732786  83.4900159  35.4022268
  63.0603815  82.2159901  35.9436083  64.4591440  83.0535197  48.9898896
  64.1676248  83.4165178  49.8262357  63.8463571  82.3402206  48.8112228
  69.2965108  93.6798128  43.3636856  69.9343518  93.5604876  42.6600196
  69.1785951  94.6278972  43.4224808  66.1054814  93.6325556  43.2998381
  65.7673326  93.5166621  42.4118915  66.9744583  93.2316721  43.2799387
  61.9641630  95.4861033  39.2895271  61.4006495  95.3950970  38.5211559
  61.8494025  94.6660937  39.7697764  66.5874597  94.7860408  49.2584586
  66.5763238  94.3913206  48.3865090  66.7495237  94.0526481  49.8518357
  59.5106062  96.9812224  42.1279492  60.3027354  96.6403049  41.7125791
  59.7502712  97.0907199  43.0481645  67.5441189  99.1532000  34.6009736
  66.8929169  99.7386081  34.2143750  68.3385552  99.6838195  34.6604774
  61.4696816  96.2421138  34.9996871  62.2427692  95.6950125  34.8609747
  61.8222215  97.1065387  35.2111332  63.3081859  97.5697520  48.2063770
  63.0171725  98.4743151  48.0910436  63.9438843  97.6114047  48.9207840
  64.2338065  94.9474368  44.7965130  64.8301638  94.7230391  44.0822093
  64.2913037  94.2059114  45.3990578  63.8063094  92.4013804  32.6315321
  64.0588615  91.8795325  31.8698784  62.8687653  92.2379949  32.7342004
  68.8506377  91.4049582  40.4390064  69.6369466  90.9869005  40.0880481
  69.1145081  92.3095674  40.6071712  69.0216454  96.8422432  35.1378721
  68.3862287  96.9157059  35.8499625  68.6913860  97.4316031  34.4597800
  74.2514804  91.3424815  41.3423042  74.9839976  90.7724032  41.5760872
  73.4954159  90.9546416  41.7829548  63.5259383  94.3041910  34.8339696
  63.4095641  93.6286813  35.5020780  63.6361642  93.8174284  34.0171849
  65.8690924  93.7652057  38.5386385  65.5049131  93.2382678  39.2499306
  66.7258039  93.3750526  38.3652870  71.7740224  85.0546389  45.8017651
  71.4423549  85.9241800  45.5778866  71.1785838  84.7382673  46.4811681
  65.5096410  88.7941956  33.5347733  65.6770813  89.6622193  33.9018204
  65.3193580  88.9569238  32.6109023  68.2671744  97.2558935  45.2013564
  67.9672467  98.1583974  45.0929371  67.9222803  96.9891119  46.0534717
  61.7184225  93.7072732  41.2350268  60.7934722  93.5748946  41.4427960
  61.9668638  94.4866951  41.7320211  71.6668887  89.7741476  42.8811001
  70.7585765  89.7056884  42.5869762  71.6156483  90.2513420  43.7092826
  65.4885631  91.2499614  34.5194400  65.3685257  91.6956665  35.3579880
  64.7938220  91.5984932  33.9607938  59.0793036  93.3506006  42.0694057
  59.2085417  93.6040485  42.9833469  58.3990487  93.9433714  41.7498712
  63.2492523 104.0203256  38.1684531  63.1716553 104.9711081  38.2473012
  62.6454167 103.6749128  38.8259458  65.7409753  91.1931121  50.8245898
  64.9643087  91.7525041  50.8148763  66.3800316  91.6787904  51.3460768
  73.5330534  87.9757914  44.6588875  72.8904914  88.2690447  44.0128670
  73.0285462  87.8610834  45.4642072  71.1870698  91.7221087  35.3474734
  72.0988554  91.9548474  35.1722432  70.6780345  92.3058131  34.7849813
  63.9956126  94.0016575  50.3863865  64.7370810  94.5401618  50.1098689
  63.2893111  94.6282863  50.5435417  69.4711465  96.1445715  48.9836027
  69.8794821  95.7028125  48.2390659  68.7488727  95.5698342  49.2370220
  65.8242535  91.0818322  46.3569584  66.6703730  91.5057735  46.5004233
  65.7641173  90.4251946  47.0508147  69.7940280  96.7046906  42.7388316
  69.1649142  96.8692620  42.0364384  69.4065942  97.1188515  43.5099280
  73.6729512  97.6401343  40.0932679  72.9880550  98.0200245  39.5429713
  73.7573361  98.2496670  40.8264627  68.9741981  88.7422690  48.0150757
  68.7302912  89.4964751  47.4785033  69.2501911  89.1208038  48.8498004
  70.9280443  95.2861302  46.6928023  71.1397339  95.9293062  46.0162404
  70.8810192  94.4523619  46.2249953  68.5306672  87.8979123  43.5964595
  67.6691151  88.1960377  43.8881333  68.5569107  88.1149522  42.6645628
  65.3468242  96.4421314  40.0038401  65.8106587  96.7209017  39.2143023
  65.0825040  95.5404758  39.8211491  62.2392323  95.9892795  42.9418164
  62.8093680  96.4180064  42.3035649  62.8300435  95.7075380  43.6402350
  64.2837128  92.5644466  36.8127966  64.9861171  93.0165510  37.2801892
  63.9517756  91.9228285  37.4407859  62.7317489  91.1556223  51.1879175
  62.1016150  91.8372504  51.4214572  62.6253577  91.0439304  50.2432314
  58.0262462  90.8228019  42.1145099  57.2361516  91.0785547  41.6385210
  58.5173709  91.6376357  42.2197140  72.0426271  98.1633258  44.8650380
  72.8643715  97.7613445  44.5833062  72.0388674  98.0601492  45.8166496
  59.9777207  91.1872598  39.0728576  59.1808370  91.2991292  39.5912072
  59.7502799  91.5259250  38.2069467  65.8082875  97.7117301  47.0211091
  65.8727307  98.1737708  47.8569263  65.0993799  97.0814666  47.1493401
  56.3100165  91.0758509  44.5460090  56.5608203  91.9605519  44.8117666
  56.8459713  90.8963111  43.7735182  80.1332264  94.5072006  41.2135352
  79.3795973  93.9379404  41.0579356  80.2679806  94.4734671  42.1605986
  65.5230892  99.3785409  36.8890071  65.3876567 100.2236944  37.3174919
  66.0640705  99.5804686  36.1256005  58.9760290  96.8960847  37.4617996
  59.4884810  97.6904097  37.6123561  59.6283003  96.1987137  37.3951598
  60.7855174 100.0126603  39.5440749  60.9621803 100.9344568  39.3561733
  61.5812008  99.6985022  39.9735129  64.9266193  86.8734868  51.1424683
  65.6675906  87.4742021  51.0629145  65.1584116  86.1312505  50.5842725
  60.0707531  92.0591235  49.4202913  59.9561046  91.1576492  49.7210011
  59.2152049  92.3054932  49.0687729  67.1499369 100.0008975  51.0190413
  66.7063223  99.2145354  50.7011318  67.8116582 100.1888126  50.3534304
  61.9086490 101.5304777  45.5451092  62.4593915 101.4021840  44.7728086
  61.0697966 101.8299666  45.1945984  69.2480607 100.2811775  49.0471814
  69.2299082 101.1020656  48.5552084  70.1700527 100.1565850  49.2721956
  65.7053661  97.7955905  49.8895323  66.2381998  97.0344193  49.6594631
  65.1767742  97.5029556  50.6319477  68.8723356  82.9015971  45.4188965
  68.5287625  83.7917612  45.3428075  69.2402319  82.7117628  44.5558550
  56.9409207  95.2249501  38.2377567  57.7784429  95.6346509  38.0211274
  57.1187474  94.2848943  38.2077761  68.8373639  92.8924582  33.9261400
  68.3220262  93.6629186  34.1649787  68.5650947  92.2189718  34.5494461
  66.4220750  87.7374282  38.9846638  65.5662346  87.3481133  38.8052277
  66.8347701  87.8166243  38.1246424  67.9519896  85.2720626  43.3838198
  67.4484692  85.2350761  42.5706003  68.2450503  86.1813368  43.4434854
  73.8107913  95.6456936  35.8614573  73.0337356  95.3068096  35.4169735
  74.4899394  95.6509559  35.1869538  68.6259942  90.7651674  35.7521181
  68.3210077  91.0797823  36.6031324  69.5790384  90.8433094  35.7948514
  67.0706374  96.9241897  37.4014135  66.5427735  96.1894657  37.0887372
  66.5693876  97.7016573  37.1554103  72.0499220  95.1190918  42.5181181
  71.3922894  95.8090179  42.6061310  72.8539619  95.5087349  42.8615167
  61.8025101  87.5861563  39.7620746  62.3768853  87.3636745  39.0293939
  62.3896084  87.6550258  40.5149348  70.8604679  93.4735290  40.5685123
  71.3736560  94.1065282  41.0706833  71.5105902  92.8736486  40.2028483
  65.2158974  94.7422107  30.4049108  64.3086036  94.5111361  30.6040257
  65.7130006  93.9459727  30.5923089  68.1227053 103.4519615  33.3245794
  67.4488752 103.7551311  33.9330752  68.5092875 104.2548695  32.9751251
  67.3385509  90.9484746  42.8143463  66.4208071  91.1699693  42.6565151
  67.7545653  91.0231056  41.9555171  68.1220557  92.3476161  37.9446144
  68.8692376  92.8597559  37.6353266  68.3912147  92.0260214  38.8050537
  66.3947207  94.8434702  34.9273098  65.4858427  94.5593735  35.0245568
  66.4242291  95.2633781  34.0676405  71.6266475  98.4541292  38.6964266
  71.1728802  97.6132202  38.7529456  70.9960441  99.0902690  39.0339046
  70.5699394  89.3833278  39.9264933  69.8322151  88.8710664  40.2575176
  70.8226168  88.9433659  39.1148210  70.0699414 100.2917788  39.6314084
  70.3622388 100.8522845  38.9126449  70.5798035 100.5846349  40.3867243
  70.6711022  82.1609530  40.5206702  70.9769898  81.3006893  40.2332617
  71.3963626  82.7527150  40.3205696  56.9635378  92.5640216  38.9088300
  56.7659778  91.9709577  38.1839367  56.4082042  92.2592427  39.6264239
  64.9432101  92.4563323  41.0282893  64.9980711  91.5037159  40.9525370
  64.1323303  92.6122762  41.5124192  66.0923295  96.3843446  32.2661177
  65.6542725  95.6679305  31.8066814  66.8333736  96.6119561  31.7046268
  62.8824461  91.0740383  38.7873272  62.0692327  91.3734553  39.1938464
  63.3783455  90.6796071  39.5047754  65.0333039 101.0698139  40.7207537
  64.9909218 101.2958986  39.7916069  65.9495738 100.8361514  40.8693338
  68.4798673  91.5382207  47.6188166  68.8348061  91.7653680  48.4782632
  69.1270804  91.8700584  46.9965421  74.2096410  94.6600643  38.3237495
  74.0714308  94.8502239  37.3958684  73.8532629  95.4220026  38.7805546
  62.3738536  88.6458738  44.4034507  63.0137915  88.5047497  43.7057470
  61.5416067  88.3593251  44.0273109  74.2365790  96.7277170  43.3348767
  74.6702296  96.6352459  44.1831821  74.9497370  96.7034670  42.6968783
  63.1498840  97.9461168  40.5169500  63.9439438  97.4511489  40.3152075
  62.4390532  97.4179032  40.1537205  67.9693684 100.3279264  44.8681867
  68.0230707 100.8970200  45.6359583  67.1008466 100.4981149  44.5035904
  59.4581603  92.0904250  36.5929252  58.5279192  92.0288706  36.8099214
  59.5539075  91.5680203  35.7965894  59.3767152  88.6159063  39.1807494
  59.6373970  89.5304396  39.0716654  60.1984325  88.1483506  39.3304107
  60.8492078  90.0296820  46.3506318  61.5215131  89.8214182  45.7018967
  60.0221864  89.8318906  45.9111551  75.0981339  96.7700871  45.8681652
  75.2917229  97.6746681  46.1140927  74.9981957  96.3108290  46.7020237
  66.7517650  86.6558761  48.3671979  66.1045565  87.3548711  48.2736456
  67.5218665  87.0894905  48.7348228  70.1596448  96.9207613  51.4422533
  70.0081954  96.6918165  50.5252616  70.1501127  97.8778215  51.4553878
  66.9281784  94.4939526  46.4268799  67.8573844  94.6450686  46.2537766
  66.5072814  94.5823547  45.5717446  65.7270116  98.5190190  44.1967337
  65.5881202  98.1508975  45.0693275  64.9384712  99.0337830  44.0251294
  66.3218268 103.6199287  35.5392873  66.4970024 103.1487330  36.3538496
  65.6351056 104.2465053  35.7674134  67.2775331  97.8971793  41.5856174
  66.9425164  97.8572563  42.4813824  66.7779277  97.2316509  41.1126585
  61.2519575  93.3039423  47.1108756  61.1139373  92.5719662  47.7120295
  62.1624499  93.2148323  46.8292943  70.2134523  95.2427828  31.8593234
  69.5963693  94.5174656  31.7626287  69.7451011  96.0037188  31.5160308
  63.8801876  93.0159383  46.5992435  64.5901494  92.3752575  46.5579054
  63.8371184  93.2672277  47.5218616  71.8688654  99.9526736  49.5199014
  71.8101201  99.2685956  48.8529598  72.2708173 100.6945726  49.0679640
  62.5930810  90.0024600  48.4188075  62.0568167  89.5515339  49.0709671
  62.0047518  90.1370509  47.6758539  60.8879353 106.7688650  42.3132733
  61.1275951 107.4007174  42.9911752  60.0448550 106.4176690  42.5998093
  71.8706062  97.9166320  47.7512994  70.9832840  97.5792242  47.8739393
  72.4404613  97.1849351  47.9881760  65.4007215 102.5767772  44.7174237
  65.3277387 103.3822744  45.2293542  64.9584608 102.7759738  43.8922259
  65.1896995 101.8139542  38.2277059  64.4064517 102.3561222  38.3215283
  65.8889740 102.3313522  38.6271300  68.4993645  87.6234172  40.8711264
  68.9962344  86.8704134  40.5512335  67.7280626  87.6598488  40.3054474
  76.3523402  93.3274537  42.5129556  76.3413278  94.2099253  42.1423489
  75.4840782  92.9746088  42.3184093  67.8605899 102.4754606  46.8732396
  68.5733871 103.1102071  46.8008297  67.3695927 102.5718472  46.0572398
  69.5823425  96.3805859  38.4449688  68.6479704  96.5007321  38.2754392
  69.7600094  95.4778326  38.1809698  65.0828614  89.7651555  40.5982949
  64.7126401  89.2122595  41.2863854  65.5787706  89.1609688  40.0457949
  72.9695977  92.2223178  38.9799722  73.4356429  93.0551170  38.9060025
  73.4203477  91.7568160  39.6844980  62.9117812 100.2249050  47.6937967
  63.6127272 100.8585533  47.8467361  62.4412927 100.5663781  46.9333606
  71.0372208  98.5666999  35.9785874  71.3132052  98.4523594  36.8879748
  70.1676707  98.1684484  35.9398047  70.9412640  84.5903765  43.0190623
  70.0275719  84.8207992  43.1872830  71.3705741  84.6742209  43.8704656
  70.7119098  92.7793657  45.5190517  70.0590548  93.0269565  44.8642970
  71.0899478  91.9657795  45.1852994  67.6726272 102.8153350  39.6218688
  67.8548666 101.9975006  40.0846440  68.4959258 103.0321043  39.1843577
  68.0068437 101.7421535  36.8833736  68.5356204 101.2313990  36.2703898
  68.2696657 101.4264066  37.7479269  66.7606671  93.5213468  52.0056554
  66.0847308  93.4207597  52.6758930  67.5834305  93.3652682  52.4692552
  58.5085530  99.7585405  44.6269070  59.0938967  99.0129093  44.7596974
  58.3110369 100.0689361  45.5105733  61.3624185 102.7936652  39.6431512
  60.6934561 103.2782780  39.1595552  61.2237055 103.0405873  40.5574890
  65.5029454 104.8280396  46.2414170  66.0547762 104.9912017  47.0063256
  65.8435647 105.4184833  45.5694195  59.9546220  89.2478678  50.4909089
  60.5818259  88.8655755  51.1046614  59.0974139  89.0292880  50.8564782
  70.3540328  99.6541653  52.0962825  70.8980232 100.2671611  51.6017780
  69.7727173 100.2121232  52.6129838  68.6397841 102.7762371  43.2277852
  68.5148981 101.9752111  42.7188798  69.2976932 103.2708565  42.7391822
  60.2606009  89.1311104  42.4054993  59.5392595  89.7447071  42.2662466
  61.0499265  89.6668868  42.3271639  70.7032750 100.5771391  44.8557403
  69.7563085 100.4576742  44.7835729  71.0515523  99.6893889  44.9383664
  63.0632323  86.4665530  48.6795644  63.5866725  86.7127827  49.4421954
  62.8444656  87.2985565  48.2598782  67.7079183 100.3724107  41.0561755
  67.5604145  99.4440815  41.2369325  68.5332676 100.3944198  40.5718830
  61.5741427  89.0242175  36.9142247  61.9137500  89.5528096  36.1920855
  62.0213548  89.3622581  37.6900813  71.3113305 101.1952666  42.1426628
  72.2359852 100.9895528  42.0051079  71.1428608 100.9469067  43.0515969
  64.2684868  87.4079225  46.3645315  63.9281688  86.6087038  46.7665995
  63.5623874  87.7080936  45.7922148  63.5609574  87.5216796  35.1135540
  64.2817937  87.8998049  34.6099257  62.9374878  88.2405673  35.2170518
  67.7040697  88.2261945  36.0493872  67.9204312  89.1086583  35.7482700
  67.2234764  87.8348158  35.3199514  62.4439919  91.1847658  42.6264617
  62.2984499  91.4987961  43.5188898  61.9665122  91.8032559  42.0735515
  64.3036302  88.1750206  42.6745506  64.2897870  87.2791300  42.3377804
  65.0208730  88.1820870  43.3083792  66.1562432  88.6087547  44.7198634
  65.8980210  89.5304617  44.7182964  65.6247473  88.2117981  45.4099098
  71.1008621 101.7138334  37.4988719  71.2745499 101.1484756  36.7462571
  71.5937512 102.5139229  37.3168209  56.9185581  93.7253003  45.5652278
  56.3739049  94.5012811  45.6972552  57.7964931  94.0723807  45.4071399
  63.7073197  87.0564587  37.9433076  63.8289109  86.1281233  38.1423964
  63.4175240  87.0703273  37.0311392  76.9548012  94.4774757  39.1179019
  77.3979158  93.7282082  38.7198142  76.0774522  94.4684893  38.7352751
  72.0883793 101.0305098  34.5985617  72.7834698 101.6511791  34.8172932
  72.4306944 100.1800449  34.8737995  57.7051603  92.8522899  48.4582435
  56.9633339  93.0005534  49.0447065  57.3844347  93.1131165  47.5949184
  73.9875217  98.4804804  36.1272948  74.5126541  98.8192076  35.4022268
  73.8997569  97.5451819  35.9436083  65.6495265 102.3938877  48.2562825
  65.9582392 102.1488024  49.1285524  66.4470747 102.5985516  47.7681695
  65.6715877 104.5476787  40.4868201  65.2320868 104.0553166  41.1801058
  66.4223994 104.0049754  40.2460276  58.1508216 100.7388328  40.4892829
  58.9766236 100.4392100  40.1091473  57.8002268  99.9695950  40.9382618
  63.1189749 100.0914796  42.5590503  62.4969759  99.4285501  42.2592731
  63.7894616 100.1175928  41.8764151  56.3516821  98.6574654  41.4481763
  55.5148730  98.2296829  41.2665764  56.3240467  98.8507097  42.3852554
  63.1914277  88.5696584  52.1523009  63.2402432  89.4458707  51.7700778
  63.7336791  88.0273977  51.5794652  73.6769123  99.1137707  51.4324146
  72.8864666  99.0961846  50.8928645  73.4402477  99.6526001  52.1873183
  73.7966998  95.9630174  48.7456875  73.8465003  95.7980181  49.6872397
  73.6880921  95.0957433  48.3554755  62.6803256  98.6418719  36.0348963
  62.8291377  99.3254184  35.3815636  63.4869700  98.6223809  36.5498419
  71.0870760  91.9461102  50.0616181  71.9880623  91.8067566  49.7700179
  71.1618735  92.1115556  51.0014359  65.4213565  89.3227956  48.9069368
  64.5516875  89.6161522  48.6351956  65.6573046  89.9068401  49.6276631
  75.2985195  98.3827115  48.9898896  75.0070003  98.7457096  49.8262357
  74.6857326  97.6694123  48.8112228  76.4980877  95.9479995  41.5101466
  77.3327768  96.3869799  41.6739027  76.6340006  95.4718648  40.6909712
  73.5472383  93.5059730  47.4578954  74.0226504  93.6987376  46.6497805
  72.6237948  93.5618916  47.2122338  60.4355889  94.6683897  37.0410032
  60.1901931  93.7646227  37.2390242  60.6051804  94.6701047  36.0989510
  68.1252599  85.5407573  46.4234788  68.6434543  86.2768600  46.0981276
  67.7707732  85.8471567  47.2581547  66.1798662 101.1366850  33.5060711
  65.6072629 101.7557037  33.0531183  66.7531456 101.6866211  34.0400633
  72.2474052  90.3825490  45.6907260  73.1991475  90.4823587  45.7119484
  72.0777502  89.5903758  46.2005344  70.2688431  87.4681073  45.8766661
  69.6738363  87.7486086  45.1813149  69.9838128  87.9574974  46.6483402
  69.3995922 101.4204000  34.6369293  70.3326595 101.3549562  34.8402169
  69.3119135 102.2560267  34.1783826  72.0283938 100.7369870  31.5973241
  71.9497570 100.4029734  32.4908999  72.8493605 101.2291638  31.5964713
  74.7262130  93.6031609  44.8049559  74.6938450  92.6647610  44.9909243
  75.3362753  93.6815646  44.0715384  66.5645460  92.4727662  30.8476763
  67.5104565  92.3433871  30.9165181  66.1859705  91.7342324  31.3246191
  74.8756618  90.3942653  44.8507842  74.3595667  89.6101110  44.6637771
  75.7596567  90.0661370  45.0154362  72.5367345  84.1383668  40.8103655
  72.3392166  83.8298757  41.6946987  73.1467051  84.8645307  40.9401585
  80.5438679  94.6647616  43.9455596  81.2742068  94.4032904  44.5063299
  79.9345625  93.9276338  43.9857664  78.6253977  92.8055479  44.5430047
  77.8987140  92.6711444  43.9346539  78.2101263  93.1132308  45.3486765
  66.4484153  96.5245409  52.3077420  67.3687162  96.7024008  52.5017467
  66.4133736  95.5801454  52.1557120  64.7488378  90.3977639  30.7831649
  63.8419833  90.1010752  30.8594362  65.0264359  90.1007457  29.9165935
  59.4446226  94.4346443  44.9500201  59.6632235  95.3663551  44.9688235
  59.8571999  94.0754418  45.7355005  66.3650443  84.9414529  36.9375890
  65.5551172  84.5961614  37.3131136  67.0534860  84.6322072  37.5263501
  64.3174091  90.0079649  54.3402950  64.2170818  90.9574006  54.2715041
  64.0995633  89.6797888  53.4679020  63.5187162  87.2564574  30.9243628
  64.3806326  87.5819472  31.1839445  63.7037506  86.4696070  30.4116694
  55.5354578  95.3386914  43.2023817  54.8418049  94.9240867  42.6893771
  56.2827569  95.3807450  42.6057235  71.6719799  86.1293101  38.0678851
  71.0918468  86.7877905  37.6856903  71.4055731  85.3070445  37.6566268
  70.1223365  85.5298158  40.2700171  70.6223143  85.6414693  39.4614490
  70.7658973  85.2259211  40.9100980  64.1805361  93.4376788  53.1568012
  63.6972443  94.2377148  53.3631901  64.2666300  93.4484733  52.2035456
  57.4491320  95.2705168  41.0789831  57.4262009  95.3692855  40.1271715
  57.7591957  96.1170318  41.4006998  60.1078698  97.3281323  45.1936446
  61.0621952  97.2965265  45.1266377  59.9091222  96.8671946  46.0086672
  60.6978080  95.8982439  47.7607244  61.5170969  96.3926517  47.7842081
  60.9714888  94.9814407  47.7324811  70.4544677  88.2893191  37.1235199
  69.5670532  88.5742842  36.9055394  70.8698666  88.1286954  36.2762476
  73.8059213  88.3139712  40.8389538  74.5819603  88.8036164  41.1114155
  73.0807347  88.7397766  41.2961408  76.2431771  89.0267331  41.8963479
  76.8376262  88.7863067  41.1856787  76.3158355  88.3074462  42.5237015
  58.4628927 102.8700942  42.2106644  58.3283395 102.1101343  41.6444642
  58.0460989 103.5941842  41.7435433  69.5987890  98.0537866  31.2183219
  70.3023740  98.2587868  31.8340875  68.8750539  98.6214627  31.4832303
  70.4285700  93.8047727  37.3385489  70.3720902  94.2616278  36.4993122
  70.9814043  93.0438411  37.1608332  74.2390506  89.5937459  38.1635609
  73.9827441  89.1934094  38.9943816  73.6143374  90.3081253  38.0385748
  78.5502844  92.3333532  40.6706900  77.9902402  92.4026721  41.4438462
  77.9446348  92.1574517  39.9506396  61.6198053 103.7670259  42.4225086
  61.5030437 104.7115692  42.3203777  60.7990499 103.4643821  42.8110886
  71.5074588  98.4920395  33.2681679  72.3420192  98.0601593  33.0859154
  71.3458930  98.3202408  34.1958574  71.1620480  94.9952508  34.6338018
  71.1069284  94.8296780  33.6926462  70.5366535  95.7028541  34.7900208
  55.9512995  90.2320572  48.4599441  56.5971858  89.7219526  48.9486666
  55.7430146  90.9689254  49.0342866  68.4766387  97.3001420  53.9591581
  69.3457547  97.4742072  53.5978216  67.9973138  98.1195837  53.8367310
  64.4716605  84.4960617  34.2123337  64.4595275  85.4402457  34.3691608
  65.3640027  84.3130763  33.9182798  62.6452567 104.4198521  45.6381015
  63.5479814 104.4522131  45.9547510  62.4189937 103.4898972  45.6527351
  64.4006169 103.1729508  42.2991093  63.4501800 103.1731369  42.1855466
  64.7038655 102.4262242  41.7827128  60.2910486  87.3788190  52.5574455
  61.1541947  87.0224994  52.7677779  59.7175896  87.0402084  53.2449859
  80.1358863 109.0090046  43.3636856  80.7737273 108.8896793  42.6600196
  80.0179706 109.9570890  43.4224808  76.9448569 108.9617474  43.2998381
  76.6067080 108.8458539  42.4118915  77.8138337 108.5608639  43.2799387
  72.8035385 110.8152950  39.2895271  72.2400250 110.7242887  38.5211559
  72.6887780 109.9952855  39.7697764  77.4268352 110.1152326  49.2584586
  77.4156993 109.7205124  48.3865090  77.5888991 109.3818398  49.8518357
  70.3499817 112.3104142  42.1279492  71.1421108 111.9694967  41.7125791
  70.5896467 112.4199117  43.0481645  78.3834943 114.4823918  34.6009736
  77.7322923 115.0677999  34.2143750  79.1779306 115.0130113  34.6604774
  72.3090571 111.5713055  34.9996871  73.0821447 111.0242042  34.8609747
  72.6615969 112.4357305  35.2111332  74.1475613 112.8989438  48.2063770
  73.8565479 113.8035068  48.0910436  74.7832597 112.9405965  48.9207840
  75.0731820 110.2766286  44.7965130  75.6695392 110.0522308  44.0822093
  75.1306791 109.5351032  45.3990578  74.6456848 107.7305721  32.6315321
  74.8982369 107.2087243  31.8698784  73.7081407 107.5671867  32.7342004
  79.6900131 106.7341500  40.4390064  80.4763220 106.3160923  40.0880481
  79.9538835 107.6387592  40.6071712  79.8610209 112.1714350  35.1378721
  79.2256041 112.2448977  35.8499625  79.5307615 112.7607949  34.4597800
  85.0908558 106.6716733  41.3423042  85.8233730 106.1015950  41.5760872
  84.3347914 106.2838333  41.7829548  74.3653137 109.6333827  34.8339696
  74.2489395 108.9578731  35.5020780  74.4755397 109.1466201  34.0171849
  76.7084678 109.0943974  38.5386385  76.3442885 108.5674595  39.2499306
  77.5651794 108.7042443  38.3652870  82.6133979 100.3838307  45.8017651
  82.2817303 101.2533718  45.5778866  82.0179592 100.0674591  46.4811681
  76.3490165 104.1233874  33.5347733  76.5164567 104.9914111  33.9018204
  76.1587334 104.2861156  32.6109023  79.1065498 112.5850853  45.2013564
  78.8066221 113.4875892  45.0929371  78.7616558 112.3183036  46.0534717
  72.5577980 109.0364650  41.2350268  71.6328476 108.9040864  41.4427960
  72.8062393 109.8158869  41.7320211  82.5062642 105.1033393  42.8811001
  81.5979519 105.0348802  42.5869762  82.4550238 105.5805338  43.7092826
  76.3279386 106.5791532  34.5194400  76.2079011 107.0248582  35.3579880
  75.6331974 106.9276849  33.9607938  69.9186791 108.6797923  42.0694057
  70.0479172 108.9332402  42.9833469  69.2384242 109.2725631  41.7498712
  76.5803508 106.5223039  50.8245898  75.8036842 107.0816959  50.8148763
  77.2194071 107.0079822  51.3460768  84.3724288 103.3049832  44.6588875
  83.7298669 103.5982365  44.0128670  83.8679217 103.1902752  45.4642072
  82.0264452 107.0513005  35.3474734  82.9382308 107.2840392  35.1722432
  81.5174099 107.6350049  34.7849813  74.8349880 109.3308492  50.3863865
  75.5764564 109.8693536  50.1098689  74.1286866 109.9574781  50.5435417
  80.3105220 111.4737633  48.9836027  80.7188576 111.0320043  48.2390659
  79.5882481 110.8990260  49.2370220  76.6636290 106.4110239  46.3569584
  77.5097485 106.8349653  46.5004233  76.6034927 105.7543864  47.0508147
  80.6334034 112.0338823  42.7388316  80.0042897 112.1984537  42.0364384
  80.2459696 112.4480433  43.5099280  79.8135735 104.0714608  48.0150757
  79.5696667 104.8256668  47.4785033  80.0895666 104.4499955  48.8498004
  81.7674198 110.6153220  46.6928023  81.9791093 111.2584980  46.0162404
  81.7203946 109.7815537  46.2249953  79.3700427 103.2271041  43.5964595
  78.5084906 103.5252294  43.8881333  79.3962861 103.4441440  42.6645628
  76.1861996 111.7713231  40.0038401  76.6500342 112.0500934  39.2143023
  75.9218794 110.8696676  39.8211491  73.0786077 111.3184713  42.9418164
  73.6487434 111.7471981  42.3035649  73.6694189 111.0367298  43.6402350
  75.1230882 107.8936384  36.8127966  75.8254926 108.3457427  37.2801892
  74.7911511 107.2520203  37.4407859  73.5711244 106.4848140  51.1879175
  72.9409904 107.1664421  51.4214572  73.4647332 106.3731222  50.2432314
  68.8656216 106.1519936  42.1145099  68.0755270 106.4077465  41.6385210
  69.3567464 106.9668274  42.2197140  82.8820026 113.4925176  44.8650380
  83.7037470 113.0905363  44.5833062  82.8782429 113.3893410  45.8166496
  70.8170962 106.5164516  39.0728576  70.0202125 106.6283210  39.5912072
  70.5896554 106.8551168  38.2069467  76.6476629 113.0409219  47.0211091
  76.7121062 113.5029626  47.8569263  75.9387553 112.4106584  47.1493401
  67.1493919 106.4050427  44.5460090  67.4001958 107.2897437  44.8117666
  67.6853468 106.2255028  43.7735182  76.3624647 114.7077326  36.8890071
  76.2270322 115.5528862  37.3174919  76.9034459 114.9096604  36.1256005
  72.8491987 100.7868906  53.5504426  72.4558932 100.2335105  54.2252071
  73.6658127 101.0979485  53.9410944  69.8154044 112.2252764  37.4617996
  70.3278565 113.0196015  37.6123561  70.4676757 111.5279055  37.3951598
  71.6248929 115.3418521  39.5440749  71.8015557 116.2636485  39.3561733
  72.4205762 115.0276940  39.9735129  75.7659948 102.2026785  51.1424683
  76.5069661 102.8033938  51.0629145  75.9977870 101.4604423  50.5842725
  70.9101286 107.3883153  49.4202913  70.7954801 106.4868410  49.7210011
  70.0545803 107.6346849  49.0687729  77.9893123 115.3300893  51.0190413
  77.5456977 114.5437271  50.7011318  78.6510337 115.5180043  50.3534304
  72.7480244 116.8596694  45.5451092  73.2987670 116.7313758  44.7728086
  71.9091720 117.1591583  45.1945984  76.5447415 113.1247822  49.8895323
  77.0775752 112.3636110  49.6594631  76.0161497 112.8321474  50.6319477
  79.7117110  98.2307888  45.4188965  79.3681380  99.1209530  45.3428075
  80.0796073  98.0409546  44.5558550  67.7802961 110.5541419  38.2377567
  68.6178183 110.9638427  38.0211274  67.9581229 109.6140861  38.2077761
  79.6767393 108.2216499  33.9261400  79.1614017 108.9921104  34.1649787
  79.4044702 107.5481635  34.5494461  77.2614504 103.0666200  38.9846638
  76.4056101 102.6773051  38.8052277  77.6741456 103.1458161  38.1246424
  78.7913651 100.6012543  43.3838198  78.2878446 100.5642679  42.5706003
  79.0844258 101.5105286  43.4434854  75.0356537 100.6851273  42.3904380
  75.9009533 100.4894082  42.0310269  75.1034046 100.4561625  43.3173736
  84.6501667 110.9748854  35.8614573  83.8731110 110.6360013  35.4169735
  85.3293148 110.9801477  35.1869538  79.4653696 106.0943591  35.7521181
  79.1603832 106.4089741  36.6031324  80.4184138 106.1725011  35.7948514
  77.9100128 112.2533815  37.4014135  77.3821490 111.5186574  37.0887372
  77.4087631 113.0308491  37.1554103  82.8892974 110.4482835  42.5181181
  82.2316649 111.1382097  42.6061310  83.6933373 110.8379267  42.8615167
  72.6418856 102.9153481  39.7620746  73.2162608 102.6928663  39.0293939
  73.2289838 102.9842176  40.5149348  81.6998433 108.8027208  40.5685123
  82.2130315 109.4357200  41.0706833  82.3499657 108.2028403  40.2028483
  72.9688443 104.9457942  33.7816632  72.1325755 105.2832629  34.1025906
  72.8293213 104.8106922  32.8443769  74.9441524  99.7894730  38.4895816
  74.2905936  99.4743747  37.8652431  74.9021998  99.1670470  39.2155639
  76.0552728 110.0714025  30.4049108  75.1479790 109.8403278  30.6040257
  76.5523760 109.2751644  30.5923089  78.1779264 106.2776663  42.8143463
  77.2601825 106.4991610  42.6565151  78.5939407 106.3522974  41.9555171
  78.9614312 107.6768079  37.9446144  79.7086131 108.1889476  37.6353266
  79.2305901 107.3552132  38.8050537  77.2340962 110.1726620  34.9273098
  76.3252181 109.8885653  35.0245568  77.2636046 110.5925698  34.0676405
  82.4660229 113.7833209  38.6964266  82.0122556 112.9424119  38.7529456
  81.8354196 114.4194608  39.0339046  81.4093149 104.7125195  39.9264933
  80.6715906 104.2002582  40.2575176  81.6619922 104.2725577  39.1148210
  81.5104776  97.4901447  40.5206702  81.8163653  96.6298811  40.2332617
  82.2357381  98.0819068  40.3205696  67.8029132 107.8932134  38.9088300
  67.6053532 107.3001495  38.1839367  67.2475796 107.5884344  39.6264239
  75.7825856 107.7855240  41.0282893  75.8374466 106.8329077  40.9525370
  74.9717058 107.9414680  41.5124192  76.9317050 111.7135364  32.2661177
  76.4936480 110.9971222  31.8066814  77.6727490 111.9411478  31.7046268
  73.7218216 106.4032300  38.7873272  72.9086081 106.7026471  39.1938464
  74.2177210 106.0087989  39.5047754  75.8726794 116.3990057  40.7207537
  75.8302972 116.6250903  39.7916069  76.7889493 116.1653432  40.8693338
  79.3192427 106.8674125  47.6188166  79.6741815 107.0945598  48.4782632
  79.9664559 107.1992501  46.9965421  85.0490164 109.9892561  38.3237495
  84.9108063 110.1794157  37.3958684  84.6926383 110.7511943  38.7805546
  73.2132291 103.9750656  44.4034507  73.8531670 103.8339415  43.7057470
  72.3809821 103.6885169  44.0273109  73.9892594 113.2753086  40.5169500
  74.7833193 112.7803406  40.3152075  73.2784287 112.7470949  40.1537205
  78.8087439 115.6571182  44.8681867  78.8624461 116.2262118  45.6359583
  77.9402220 115.8273067  44.5035904  70.2975358 107.4196168  36.5929252
  69.3672946 107.3580623  36.8099214  70.3932830 106.8972121  35.7965894
  70.2160907 103.9450981  39.1807494  70.4767724 104.8596314  39.0716654
  71.0378079 103.4775423  39.3304107  71.6885832 105.3588738  46.3506318
  72.3608886 105.1506100  45.7018967  70.8615619 105.1610824  45.9111551
  77.5911404 101.9850679  48.3671979  76.9439319 102.6840628  48.2736456
  78.3612420 102.4186823  48.7348228  80.9990202 112.2499531  51.4422533
  80.8475709 112.0210083  50.5252616  80.9894882 113.2070132  51.4553878
  77.7675539 109.8231444  46.4268799  78.6967599 109.9742603  46.2537766
  77.3466569 109.9115465  45.5717446  76.5663870 113.8482108  44.1967337
  76.4274956 113.4800893  45.0693275  75.7778467 114.3629748  44.0251294
  78.1169086 113.2263711  41.5856174  77.7818918 113.1864481  42.4813824
  77.6173031 112.5608427  41.1126585  72.0913330 108.6331341  47.1108756
  71.9533127 107.9011580  47.7120295  73.0018253 108.5440241  46.8292943
  81.0528277 110.5719745  31.8593234  80.4357448 109.8466573  31.7626287
  80.5844766 111.3329105  31.5160308  74.7195630 108.3451300  46.5992435
  75.4295249 107.7044492  46.5579054  74.6764938 108.5964195  47.5218616
  73.4324564 105.3316518  48.4188075  72.8961921 104.8807257  49.0709671
  72.8441273 105.4662427  47.6758539  72.8426823 104.7905170  30.9814538
  71.9656289 104.6693970  30.6176785  73.3184576 103.9991248  30.7293427
  82.7099816 113.2458237  47.7512994  81.8226595 112.9084159  47.8739393
  83.2798367 112.5141269  47.9881760  64.3628963 109.5782329  41.0756046
  65.0500003 109.2644059  40.4877061  64.2077092 110.4823694  40.8023297
  69.1663685 104.4672526  45.5041069  69.0821874 103.8598195  44.7691479
  68.3446392 104.9581544  45.5050566  76.0290749 117.1431460  38.2277059
  75.2458271 117.6853140  38.3215283  76.7283494 117.6605440  38.6271300
  79.3387399 102.9526089  40.8711264  79.8356099 102.1996052  40.5512335
  78.5674381 102.9890406  40.3054474  87.1917157 108.6566455  42.5129556
  87.1807033 109.5391170  42.1423489  86.3234536 108.3038006  42.3184093
  80.4217180 111.7097777  38.4449688  79.4873459 111.8299239  38.2754392
  80.5993848 110.8070243  38.1809698  75.9222368 105.0943472  40.5982949
  75.5520156 104.5414513  41.2863854  76.4181460 104.4901606  40.0457949
  83.8089731 107.5515096  38.9799722  84.2750184 108.3843087  38.9060025
  84.2597232 107.0860077  39.6844980  73.7511567 115.5540967  47.6937967
  74.4521026 116.1877450  47.8467361  73.2806682 115.8955699  46.9333606
  81.8765962 113.8958917  35.9785874  82.1525806 113.7815512  36.8879748
  81.0070461 113.4976402  35.9398047  81.7806394  99.9195683  43.0190623
  80.8669474 100.1499910  43.1872830  82.2099496 100.0034127  43.8704656
  81.5512853 108.1085575  45.5190517  80.8984303 108.3561482  44.8642970
  81.9293232 107.2949713  45.1852994  77.6000426 108.8505386  52.0056554
  76.9241063 108.7499515  52.6758930  78.4228059 108.6944600  52.4692552
  69.3479285 115.0877322  44.6269070  69.9332721 114.3421010  44.7596974
  69.1504123 115.3981279  45.5105733  72.2017940 118.1228570  39.6431512
  71.5328315 118.6074697  39.1595552  72.0630810 118.3697790  40.5574890
  63.9396939 107.6582923  43.3473513  63.9781039 107.1246513  44.1410631
  63.4337232 107.1318128  42.7284490  71.3187702 102.5047463  46.8436055
  71.3829028 103.3662294  46.4313453  71.2554822 101.8921465  46.1108414
  70.7939974 104.5770596  50.4909089  71.4212013 104.1947673  51.1046614
  69.9367893 104.3584798  50.8564782  67.5705517 106.3847025  36.4227444
  67.8658958 105.4757703  36.3694498  66.6693553 106.3634764  36.1008446
  71.0999764 104.4603021  42.4054993  70.3786350 105.0738989  42.2662466
  71.8893020 104.9960786  42.3271639  73.9026077 101.7957448  48.6795644
  74.4260479 102.0419744  49.4421954  73.6838411 102.6277483  48.2598782
  69.2993359 104.0661122  36.5466769  68.9706065 103.1858501  36.3641875
  69.6532729 104.0108791  37.4343158  78.5472937 115.7016025  41.0561755
  78.3997900 114.7732733  41.2369325  79.3726431 115.7236116  40.5718830
  72.4135182 104.3534092  36.9142247  72.7531254 104.8820013  36.1920855
  72.8607302 104.6914498  37.6900813  75.1078623 102.7371143  46.3645315
  74.7675443 101.9378956  46.7665995  74.4017629 103.0372854  45.7922148
  75.7595094  99.8220455  44.8172638  76.5821164  99.3480934  44.6951528
  76.0033158 100.6010939  45.3171324  74.4003329 102.8508714  35.1135540
  75.1211691 103.2289967  34.6099257  73.7768633 103.5697591  35.2170518
  78.5434452 103.5553863  36.0493872  78.7598066 104.4378501  35.7482700
  78.0628519 103.1640076  35.3199514  73.2833673 106.5139576  42.6264617
  73.1378254 106.8279879  43.5188898  72.8058877 107.1324476  42.0735515
  75.1430056 103.5042124  42.6745506  75.1291625 102.6083217  42.3377804
  75.8602484 103.5112788  43.3083792  76.9956187 103.9379464  44.7198634
  76.7373965 104.8596535  44.7182964  76.4641227 103.5409899  45.4099098
  67.7579335 109.0544920  45.5652278  67.2132803 109.8304728  45.6972552
  68.6358685 109.4015725  45.4071399  74.5466952 102.3856504  37.9433076
  74.6682863 101.4573150  38.1423964  74.2568994 102.3995190  37.0311392
  77.4158142 100.0711415  41.0799796  77.4379839 100.1350748  40.1251776
  77.8326201  99.2315923  41.2740302  87.7941767 109.8066674  39.1179019
  88.2372913 109.0573999  38.7198142  86.9168277 109.7976811  38.7352751
  68.5445357 108.1814817  48.4582435  67.8027093 108.3297452  49.0447065
  68.2238101 108.4423082  47.5949184  68.9901971 116.0680245  40.4892829
  69.8159991 115.7684017  40.1091473  68.6396023 115.2987868  40.9382618
  73.9583504 115.4206714  42.5590503  73.3363513 114.7577419  42.2592731
  74.6288371 115.4467845  41.8764151  67.1910576 113.9866572  41.4481763
  66.3542484 113.5588746  41.2665764  67.1634221 114.1799015  42.3852554
  74.0308031 103.8988502  52.1523009  74.0796187 104.7750624  51.7700778
  74.5730546 103.3565895  51.5794652  84.6360752 111.2922091  48.7456875
  84.6858757 111.1272099  49.6872397  84.5274676 110.4249350  48.3554755
  73.5197011 113.9710637  36.0348963  73.6685131 114.6546101  35.3815636
  74.3263454 113.9515727  36.5498419  81.9264515 107.2753019  50.0616181
  82.8274377 107.1359484  49.7700179  82.0012489 107.4407474  51.0014359
  76.2607320 104.6519874  48.9069368  75.3910629 104.9453440  48.6351956
  76.4966800 105.2360319  49.6276631  84.3866137 108.8351647  47.4578954
  84.8620259 109.0279294  46.6497805  83.4631703 108.8910833  47.2122338
  71.2749644 109.9975815  37.0410032  71.0295686 109.0938145  37.2390242
  71.4445558 109.9992965  36.0989510  78.9646354 100.8699491  46.4234788
  79.4828298 101.6060518  46.0981276  78.6101487 101.1763484  47.2581547
  70.5445291 105.7304172  34.5396194  69.8514536 105.8048527  33.8836230
  70.2997043 104.9664516  35.0617711  79.2158948  97.2899773  41.9435685
  79.4960702  96.6222963  42.5696111  80.0009555  97.4828869  41.4310348
  77.0192416 116.4658767  33.5060711  76.4466384 117.0848955  33.0531183
  77.5925210 117.0158129  34.0400633  83.0867806 105.7117407  45.6907260
  84.0385229 105.8115505  45.7119484  82.9171257 104.9195676  46.2005344
  81.1082186 102.7972991  45.8766661  80.5132118 103.0778003  45.1813149
  80.8231882 103.2866892  46.6483402  85.5655884 108.9323527  44.8049559
  85.5332204 107.9939528  44.9909243  86.1756508 109.0107564  44.0715384
  77.4039215 107.8019580  30.8476763  78.3498320 107.6725788  30.9165181
  77.0253460 107.0634242  31.3246191  85.7150373 105.7234571  44.8507842
  85.1989421 104.9393027  44.6637771  86.5990321 105.3953287  45.0154362
  83.3761099  99.4675586  40.8103655  83.1785921  99.1590674  41.6946987
  83.9860805 100.1937225  40.9401585  89.4647731 108.1347397  44.5430047
  88.7380895 108.0003362  43.9346539  89.0495018 108.4424225  45.3486765
  77.2877907 111.8537326  52.3077420  78.2080917 112.0315925  52.5017467
  77.2527490 110.9093372  52.1557120  75.5882132 105.7269557  30.7831649
  74.6813587 105.4302669  30.8594362  75.8658113 105.4299375  29.9165935
  66.5060072 107.0475920  41.2330695  66.1862857 106.1941228  40.9405069
  65.9593501 107.2624498  41.9888662  70.2839980 109.7638361  44.9500201
  70.5025990 110.6955469  44.9688235  70.6965754 109.4046335  45.7355005
  77.2044198 100.2706446  36.9375890  76.3944926  99.9253531  37.3131136
  77.8928615  99.9613990  37.5263501  79.1334746  99.3484493  38.5600186
  79.6865785  99.7679946  39.2190210  79.3704832  98.4220241  38.6023142
  75.1567845 105.3371567  54.3402950  75.0564572 106.2865924  54.2715041
  74.9389387 105.0089806  53.4679020  74.3580917 102.5856492  30.9243628
  75.2200081 102.9111390  31.1839445  74.5431261 101.7987988  30.4116694
  66.3748332 110.6678831  43.2023817  65.6811804 110.2532784  42.6893771
  67.1221323 110.7099368  42.6057235  82.5113553 101.4585018  38.0678851
  81.9312222 102.1169822  37.6856903  82.2449486 100.6362363  37.6566268
  80.9617120 100.8590076  40.2700171  81.4616898 100.9706610  39.4614490
  81.6052727 100.5551129  40.9100980  75.0199115 108.7668706  53.1568012
  74.5366197 109.5669066  53.3631901  75.1060054 108.7776650  52.2035456
  68.2885075 110.5997085  41.0789831  68.2655763 110.6984772  40.1271715
  68.5985711 111.4462236  41.4006998  70.9472453 112.6573240  45.1936446
  71.9015706 112.6257183  45.1266377  70.7484976 112.1963864  46.0086672
  71.5371835 111.2274356  47.7607244  72.3564724 111.7218435  47.7842081
  71.8108643 110.3106324  47.7324811  81.2938431 103.6185109  37.1235199
  80.4064286 103.9034759  36.9055394  81.7092420 103.4578872  36.2762476
  84.6452967 103.6431630  40.8389538  85.4213357 104.1328082  41.1114155
  83.9201101 104.0689684  41.2961408  87.0825526 104.3559249  41.8963479
  87.6770017 104.1154985  41.1856787  87.1552110 103.6366379  42.5237015
  81.2679455 109.1339645  37.3385489  81.2114656 109.5908196  36.4993122
  81.8207797 108.3730329  37.1608332  85.0784261 104.9229376  38.1635609
  84.8221195 104.5226012  38.9943816  84.4537129 105.6373170  38.0385748
  89.3896599 107.6625450  40.6706900  88.8296157 107.7318639  41.4438462
  88.7840102 107.4866434  39.9506396  82.3468342 113.8212312  33.2681679
  83.1813946 113.3893511  33.0859154  82.1852685 113.6494326  34.1958574
  82.0014234 110.3244426  34.6338018  81.9463038 110.1588697  33.6926462
  81.3760290 111.0320459  34.7900208  66.7906749 105.5612490  48.4599441
  67.4365613 105.0511444  48.9486666  66.5823900 106.2981172  49.0342866
  79.3160141 112.6293338  53.9591581  80.1851301 112.8033990  53.5978216
  78.8366893 113.4487754  53.8367310  75.3110360  99.8252535  34.2123337
  75.2989030 100.7694375  34.3691608  76.2033782  99.6422680  33.9182798
  73.4846322 119.7490439  45.6381015  74.3873568 119.7814049  45.9547510
  73.2583692 118.8190890  45.6527351  75.2399924 118.5021425  42.2991093
  74.2895555 118.5023287  42.1855466  75.5432410 117.7554160  41.7827128
  79.1262479  96.4195311  38.4669274  78.3594875  95.8653798  38.6125956
  79.5373184  96.4917180  39.3283425  71.1304240 102.7080107  52.5574455
  71.9935702 102.3516912  52.7677779  70.5569651 102.3694002  53.2449859
  25.9390091   9.3692580  30.0882162  26.5768501   9.2499327  29.3845503
  25.8210934  10.3173424  30.1470115  22.7479798   9.3220008  30.0243687
  22.4098309   9.2061073  29.1364222  23.6169566   8.9211173  30.0044693
  23.2299581  10.4754860  35.9829893  23.2188222  10.0807658  35.1110396
  23.3920220   9.7420933  36.5763664  19.9506842  13.2591972  34.9309077
  19.6596708  14.1637603  34.8155743  20.5863826  13.3008499  35.6453146
  20.8763049  10.6368820  31.5210436  21.4726621  10.4124843  30.8067399
  20.9338020   9.8953566  32.1235884  30.8939787   7.0319267  28.0668349
  31.6264959   6.4618484  28.3006178  30.1379143   6.6440868  28.5074855
  28.4165207   0.7440841  32.5262958  28.0848532   1.6136252  32.3024173
  27.8210821   0.4277125  33.2056988  24.9096727  12.9453387  31.9258870
  24.6097450  13.8478426  31.8174678  24.5647786  12.6785570  32.7780023
  28.3093871   5.4635927  29.6056308  27.4010748   5.3951336  29.3115069
  28.2581467   5.9407872  30.4338133  19.8917507  19.7097708  24.8929838
  19.8141536  20.6605533  24.9718319  19.2879150  19.3643580  25.5504764
  22.3834737   6.8825573  37.5491205  21.6068071   7.4419493  37.5394070
  23.0225300   7.3682356  38.0706075  30.1755517   3.6652366  31.3834182
  29.5329897   3.9584899  30.7373976  29.6710446   3.5505286  32.1887378
  20.6381109   9.6911026  37.1109172  21.3795793  10.2296070  36.8343996
  19.9318094  10.3177315  37.2680724  26.1136448  11.8340167  35.7081333
  26.5219805  11.3922577  34.9635966  25.3913710  11.2592794  35.9615526
  22.4667519   6.7712774  33.0814890  23.3128714   7.1952187  33.2249539
  22.4066156   6.1146398  33.7753453  26.4365263  12.3941357  29.4633622
  25.8074126  12.5587072  28.7609690  26.0490925  12.8082967  30.2344586
  30.3154495  13.3295795  26.8177986  29.6305533  13.7094697  26.2675019
  30.3998344  13.9391122  27.5509934  25.6166964   4.4317142  34.7396064
  25.3727896   5.1859203  34.2030340  25.8926894   4.8102490  35.5743311
  27.5705427  10.9755754  33.4173330  27.7822322  11.6187514  32.7407711
  27.5235175  10.1418071  32.9495260  18.8817306  11.6787247  29.6663471
  19.4518663  12.1074515  29.0280955  19.4725418  11.3969832  30.3647656
  19.3742473   6.8450675  37.9124482  18.7441133   7.5266955  38.1459879
  19.2678560   6.7333756  36.9677620  28.6851255  13.8527710  31.5895687
  29.5068698  13.4507897  31.3078369  28.6813657  13.7495944  32.5411803
  22.4507858  13.4011753  33.7456397  22.5152291  13.8632160  34.5814569
  21.7418782  12.7709118  33.8738707  36.7757248  10.1966458  27.9380658
  36.0220956   9.6273856  27.7824663  36.9104789  10.1629123  28.8851293
  21.5691176   2.5629320  37.8669990  22.3100890   3.1636473  37.7874452
  21.8009099   1.8206957  37.3088032  16.7132514   7.7485687  36.1448219
  16.5986029   6.8470944  36.4455318  15.8577032   7.9949384  35.7933036
  23.7924352  15.6903427  37.7435720  23.3488206  14.9039806  37.4256624
  24.4541566  15.8782578  37.0779611  18.5511473  17.2199229  32.2696398
  19.1018898  17.0916292  31.4973392  17.7122949  17.5194118  31.9191291
  25.8905590  15.9706227  35.7717121  25.8724065  16.7915108  35.2797390
  26.8125510  15.8460302  35.9967262  22.3478644  13.4850356  36.6140629
  22.8806981  12.7238645  36.3839937  21.8192725  13.1924008  37.3564784
  28.6924203  10.8085369  29.2426488  28.0347877  11.4984631  29.3306616
  29.4964602  11.1981801  29.5860474  27.5029662   9.1629742  27.2930430
  28.0161544   9.7959734  27.7952139  28.1530886   8.5630938  26.9273790
  28.2691458  14.1435744  25.4209572  27.8153785  13.3026653  25.4774763
  27.6385425  14.7797142  25.7584352  26.7124397  15.9812240  26.3559390
  27.0047372  16.5417297  25.6371756  27.2223018  16.2740801  27.1112549
  21.6758022  16.7592591  27.4452844  21.6334201  16.9853438  26.5161376
  22.5920721  16.5255966  27.5938645  25.1223656   7.2276659  34.3433473
  25.4773044   7.4548132  35.2027938  25.7695787   7.5595036  33.7210728
  30.8521393  10.3495095  25.0482802  30.7139292  10.5396691  24.1203991
  30.4957612  11.1114478  25.5050853  30.8790773  12.4171622  30.0594073
  31.3127279  12.3246911  30.9077127  31.5922353  12.3929122  29.4214089
  24.6118668  16.0173716  31.5927174  24.6655690  16.5864652  32.3604890
  23.7433449  16.1875601  31.2281211  17.4917061   5.7191272  33.0751625
  18.1640115   5.5108634  32.4264274  16.6646848   5.5213358  32.6356857
  31.7406322  12.4595322  32.5926959  31.9342212  13.3641133  32.8386234
  31.6406941  12.0002742  33.4265544  23.3942633   2.3453213  35.0917286
  22.7470548   3.0443163  34.9981762  24.1643648   2.7789357  35.4593534
  26.8021431  12.6102065  38.1667839  26.6506937  12.3812617  37.2497923
  26.7926111  13.5672667  38.1799184  23.5706767  10.1833978  33.1514106
  24.4998827  10.3345138  32.9783073  23.1497797  10.2717999  32.2962752
  22.3695099  14.2084642  30.9212643  22.2306185  13.8403427  31.7938581
  21.5809695  14.7232282  30.7496601  22.9643251  19.3093739  22.2638180
  23.1395007  18.8381782  23.0783803  22.2776039  19.9359505  22.4919441
  23.9200314  13.5866245  28.3101481  23.5850147  13.5467015  29.2059131
  23.4204260  12.9210961  27.8371891  17.8944558   8.9933875  33.8354062
  17.7564356   8.2614114  34.4365601  18.8049482   8.9042775  33.5538250
  20.5226859   8.7053834  33.3237742  21.2326478   8.0647027  33.2824360
  20.4796167   8.9566729  34.2463923  28.5113638  15.6421188  36.2444321
  28.4526184  14.9580408  35.5774904  28.9133156  16.3840178  35.7924947
  19.2355793   5.6919052  35.1433381  18.6993150   5.2409791  35.7954978
  18.6472501   5.8264961  34.4003846  17.5304336  22.4583102  29.0378040
  17.7700935  23.0901626  29.7157059  16.6873533  22.1071142  29.3243399
  28.5131045  13.6060772  34.4758301  27.6257824  13.2686693  34.5984700
  29.0829596  12.8743803  34.7127066  22.0432198  18.2662224  31.4419544
  21.9702370  19.0717196  31.9538849  21.6009591  18.4654190  30.6167565
  21.8321978  17.5033994  24.9522366  21.0489500  18.0455674  25.0460590
  22.5314723  18.0207974  25.3516607  32.9948385   9.0168989  29.2374862
  32.9838262   9.8993704  28.8668796  32.1265765   8.6640540  29.0429400
  24.5030882  18.1649058  33.5977703  25.2158854  18.7996523  33.5253604
  24.0120911  18.2612924  32.7817705  19.5542795  15.9143502  34.4183273
  20.2552255  16.5479985  34.5712668  19.0837910  16.2558233  33.6578913
  27.3544081   8.4688109  32.2435824  26.7015532   8.7164016  31.5888277
  27.7324461   7.6552247  31.9098301  24.3151255  18.5047802  26.3463994
  24.4973650  17.6869458  26.8091746  25.1384241  18.7215494  25.9088884
  24.6493421  17.4315987  23.6079043  25.1781187  16.9208442  22.9949205
  24.9121640  17.1158518  24.4724576  23.4031654   9.2107920  38.7301861
  22.7272291   9.1102049  39.4004236  24.2259288   9.0547134  39.1937858
  15.1510513  15.4479857  31.3514376  15.7363950  14.7023544  31.4842280
  14.9535352  15.7583813  32.2351040  18.0049169  18.4831104  26.3676819
  17.3359544  18.9677232  25.8840859  17.8662038  18.7300324  27.2820197
  22.1454437  20.5174848  32.9659477  22.6972745  20.6806469  33.7308562
  22.4860631  21.1079285  32.2939502  26.9965312  15.3436105  38.8208131
  27.5405216  15.9566063  38.3263086  26.4152156  15.9015683  39.3375144
  25.2822825  18.4656823  29.9523159  25.1573964  17.6646563  29.4434105
  25.9401916  18.9603016  29.4637129  27.3457733  16.2665843  31.5802709
  26.3988068  16.1471194  31.5081036  27.6940506  15.3788341  31.6628971
  24.3504166  16.0618559  27.7807061  24.2029129  15.1335267  27.9614631
  25.1757660  16.0838650  27.2964137  27.9538288  16.8847118  28.8671934
  28.8784836  16.6789979  28.7296385  27.7853591  16.6363519  29.7761276
  22.7987416   4.2981998  31.4443940  22.5405193   5.2199069  31.4428271
  22.2672456   3.9012433  32.1344404  27.7433604  17.4032786  24.2234026
  27.9170482  16.8379208  23.4707878  28.2362496  18.2033680  24.0413516
  13.5610564   9.4147455  32.2897584  13.0164032  10.1907263  32.4217859
  14.4389914   9.7618259  32.1316706  33.5972995  10.1669208  25.8424325
  34.0404141   9.4176534  25.4443449  32.7199506  10.1579345  25.4598057
  28.7308777  16.7199550  21.3230924  29.4259681  17.3406243  21.5418239
  29.0731927  15.8694901  21.5983302  14.3476586   8.5417351  35.1827741
  13.6058322   8.6899986  35.7692372  14.0269330   8.8025616  34.3194491
  30.6300200  14.1699255  22.8518255  31.1551524  14.5086528  22.1267575
  30.5422552  13.2346271  22.6681389  22.2920249  18.0833329  34.9808131
  22.6007375  17.8382476  35.8530831  23.0895731  18.2879968  34.4927002
  22.3140861  20.2371239  27.2113508  21.8745851  19.7447617  27.9046365
  23.0648978  19.6944206  26.9705583  19.7614733  15.7809248  29.2835810
  19.1394742  15.1179953  28.9838037  20.4319600  15.8070380  28.6009457
  19.8339260   4.2591036  38.8768316  19.8827416   5.1353159  38.4946085
  20.3761774   3.7168429  38.3039959  30.3194106  14.8032159  38.1569453
  29.5289650  14.7856298  37.6173952  30.0827461  15.3420453  38.9118489
  30.4391981  11.6524625  35.4702181  30.4889986  11.4874633  36.4117704
  30.3305904  10.7851884  35.0800062  27.7295743   7.6355553  36.7861488
  28.6305606   7.4962018  36.4945486  27.8043718   7.8010008  37.7259665
  22.0638549   5.0122408  35.6314674  21.1941858   5.3055974  35.3597263
  22.2998029   5.5962853  36.3521938  31.9410178  14.0721567  35.7144203
  31.6494986  14.4351548  36.5507664  31.3282309  13.3588575  35.5357535
  33.1405860  11.6374447  28.2346773  33.9752752  12.0764251  28.3984333
  33.2764989  11.1613100  27.4155019  30.1897366   9.1954182  34.1824261
  30.6651488   9.3881828  33.3743112  29.2662931   9.2513367  33.9367644
  24.7677583   1.2302025  33.1480095  25.2859526   1.9663052  32.8226583
  24.4132715   1.5366018  33.9826854  28.8899035   6.0719942  32.4152566
  29.8416458   6.1718039  32.4364790  28.7202485   5.2798210  32.9250651
  26.9113415   3.1575525  32.6011967  26.3163347   3.4380538  31.9058456
  26.6263111   3.6469426  33.3728708  31.3687113   9.2926061  31.5294866
  31.3363433   8.3542062  31.7154550  31.9787737   9.3710098  30.7960691
  31.5181601   6.0837105  31.5753149  31.0020650   5.2995561  31.3883078
  32.4021550   5.7555821  31.7399669  37.1863663  10.3542068  30.6700903
  37.9167051  10.0927356  31.2308606  36.5770608   9.6170790  30.7102971
  35.2678960   8.4949931  31.2675354  34.5412123   8.3605896  30.6591846
  34.8526247   8.8026759  32.0732072  23.0909136  12.2139860  39.0322727
  24.0112146  12.3918459  39.2262773  23.0558719  11.2695906  38.8802426
  16.0871209  10.1240895  31.6745508  16.3057219  11.0558003  31.6933542
  16.4996983   9.7648870  32.4600312  20.9599074   5.6974101  41.0648257
  20.8595801   6.6468458  40.9960348  20.7420616   5.3692340  40.1924327
  20.8230344   9.1271240  39.8813319  20.3397426   9.9271600  40.0877208
  20.9091283   9.1379185  38.9280763  16.7503682  13.0175774  31.9181752
  17.7046935  12.9859717  31.8511684  16.5516205  12.5566398  32.7331978
  17.3403064  11.5876890  34.4852550  18.1595953  12.0820969  34.5087387
  17.6139872  10.6708859  34.4570118  32.8856755   4.7161783  28.6208786
  33.4801246   4.4757519  27.9102094  32.9583338   3.9968914  29.2482322
  15.1053910  18.5595394  28.9351950  14.9708378  17.7995795  28.3689948
  14.6885973  19.2836294  28.4680739  35.1927828   8.0227984  27.3952207
  34.6327385   8.0921173  28.1683769  34.5871331   7.8468968  26.6751703
  18.2623036  19.4564711  29.1470393  18.1455420  20.4010143  29.0449083
  17.4415483  19.1538273  29.5356192  25.1191370  12.9895872  40.6836888
  25.9882530  13.1636524  40.3223523  24.6398122  13.8090289  40.5612617
  19.2877550  20.1092973  32.3626321  20.1904797  20.1416583  32.6792816
  19.0614921  19.1793424  32.3772657  21.0431152  18.8623959  29.0236400
  20.0926783  18.8625821  28.9100772  21.3463639  18.1156694  28.5072435
  36.7783846  24.6984498  30.0882162  37.4162256  24.5791245  29.3845503
  36.6604689  25.6465342  30.1470115  33.5873552  24.6511926  30.0243687
  33.2492064  24.5352991  29.1364222  34.4563320  24.2503091  30.0044693
  29.4460368  26.5047402  26.0140578  28.8825233  26.4137339  25.2456866
  29.3312763  25.6847307  26.4943071  34.0693335  25.8046778  35.9829893
  34.0581976  25.4099576  35.1110396  34.2313975  25.0712850  36.5763664
  26.9924800  27.9998594  28.8524799  27.7846092  27.6589419  28.4371098
  27.2321450  28.1093569  29.7726952  35.0259927  30.1718370  21.3255043
  34.3747906  30.7572450  20.9389057  35.8204289  30.7024565  21.3850080
  28.9515554  27.2607507  21.7242177  29.7246430  26.7136494  21.5855053
  29.3040953  28.1251756  21.9356639  30.7900596  28.5883889  34.9309077
  30.4990462  29.4929520  34.8155743  31.4257581  28.6300417  35.6453146
  31.7156803  25.9660738  31.5210436  32.3120375  25.7416760  30.8067399
  31.7731775  25.2245483  32.1235884  31.2881832  23.4200173  19.3560627
  31.5407352  22.8981695  18.5944090  30.3506391  23.2566319  19.4587311
  36.3325114  22.4235952  27.1635370  37.1188204  22.0055375  26.8125787
  36.5963819  23.3282044  27.3317019  36.5035192  27.8608802  21.8624027
  35.8681025  27.9343428  22.5744932  36.1732598  28.4502401  21.1843107
  41.7333542  22.3611185  28.0668349  42.4658714  21.7910402  28.3006178
  40.9772897  21.9732785  28.5074855  31.0078120  25.3228279  21.5585002
  30.8914378  24.6473183  22.2266087  31.1180380  24.8360653  20.7417155
  33.3509661  24.7838426  25.2631691  32.9867869  24.2569047  25.9744613
  34.2076777  24.3936895  25.0898177  39.2558962  16.0732759  32.5262958
  38.9242287  16.9428170  32.3024173  38.6604575  15.7569043  33.2056988
  32.9915148  19.8128326  20.2593040  33.1589551  20.6808562  20.6263511
  32.8012317  19.9755608  19.3354329  35.7490481  28.2745305  31.9258870
  35.4491205  29.1770344  31.8174678  35.4041541  28.0077488  32.7780023
  29.2002963  24.7259102  27.9595575  28.2753459  24.5935316  28.1673267
  29.4487376  25.5053321  28.4565517  39.1487625  20.7927845  29.6056308
  38.2404503  20.7243254  29.3115069  39.0975221  21.2699790  30.4338133
  32.9704369  22.2685984  21.2439707  32.8503994  22.7143034  22.0825187
  32.2756958  22.6171301  20.6853245  26.5611774  24.3692375  28.7939364
  26.6904155  24.6226854  29.7078776  25.8809225  24.9620083  28.4744019
  30.7311261  35.0389625  24.8929838  30.6535291  35.9897450  24.9718319
  30.1272905  34.6935498  25.5504764  33.2228491  22.2117491  37.5491205
  32.4461825  22.7711411  37.5394070  33.8619054  22.6974274  38.0706075
  41.0149272  18.9944284  31.3834182  40.3723652  19.2876817  30.7373976
  40.5104200  18.8797204  32.1887378  38.6689435  22.7407457  22.0720041
  39.5807291  22.9734843  21.8967738  38.1599082  23.3244501  21.5095119
  31.4774863  25.0202944  37.1109172  32.2189548  25.5587988  36.8343996
  30.7711849  25.6469233  37.2680724  36.9530203  27.1632085  35.7081333
  37.3613559  26.7214495  34.9635966  36.2307464  26.5884712  35.9615526
  33.3061273  22.1004691  33.0814890  34.1522468  22.5244105  33.2249539
  33.2459911  21.4438316  33.7753453  37.2759018  27.7233275  29.4633622
  36.6467880  27.8878989  28.7609690  36.8884680  28.1374885  30.2344586
  41.1548250  28.6587713  26.8177986  40.4699288  29.0386614  26.2675019
  41.2392099  29.2683040  27.5509934  36.4560718  19.7609060  34.7396064
  36.2121650  20.5151120  34.2030340  36.7320649  20.1394407  35.5743311
  38.4099181  26.3047672  33.4173330  38.6216076  26.9479432  32.7407711
  38.3628929  25.4709989  32.9495260  36.0125410  18.9165493  30.3209902
  35.1509889  19.2146746  30.6126639  36.0387845  19.1335892  29.3890934
  32.8286979  27.4607683  26.7283707  33.2925325  27.7395386  25.9388330
  32.5643778  26.5591128  26.5456798  29.7211061  27.0079165  29.6663471
  30.2912418  27.4366433  29.0280955  30.3119172  26.7261749  30.3647656
  31.7655866  23.5830836  23.5373273  32.4679909  24.0351879  24.0047199
  31.4336494  22.9414654  24.1653166  30.2136227  22.1742592  37.9124482
  29.5834888  22.8558873  38.1459879  30.1072315  22.0625674  36.9677620
  25.5081200  21.8414388  28.8390406  24.7180253  22.0971917  28.3630517
  25.9992447  22.6562726  28.9442447  39.5245009  29.1819627  31.5895687
  40.3462453  28.7799815  31.3078369  39.5207412  29.0787862  32.5411803
  27.4595945  22.2058968  25.7973883  26.6627108  22.3177662  26.3157378
  27.2321537  22.5445620  24.9314773  33.2901613  28.7303671  33.7456397
  33.3546045  29.1924078  34.5814569  32.5812536  28.1001036  33.8738707
  23.7918902  22.0944879  31.2705397  24.0426941  22.9791889  31.5362973
  24.3278451  21.9149480  30.4980489  47.6151002  25.5258376  27.9380658
  46.8614711  24.9565774  27.7824663  47.7498543  25.4921040  28.8851293
  33.0049630  30.3971778  23.6135378  32.8695305  31.2423314  24.0420226
  33.5459443  30.5991056  22.8501312  29.4916970  16.4763358  40.2749733
  29.0983915  15.9229557  40.9497377  30.3083110  16.7873937  40.6656250
  26.4579028  27.9147216  24.1863303  26.9703548  28.7090467  24.3368868
  27.1101740  27.2173507  24.1196904  28.2673912  31.0312973  26.2686056
  28.4440541  31.9530937  26.0807040  29.0630746  30.7171392  26.6980436
  32.4084931  17.8921237  37.8669990  33.1494644  18.4928390  37.7874452
  32.6402854  17.1498875  37.3088032  27.5526269  23.0777604  36.1448219
  27.4379784  22.1762862  36.4455318  26.6970787  23.3241301  35.7933036
  34.6318107  31.0195345  37.7435720  34.1881961  30.2331723  37.4256624
  35.2935320  31.2074495  37.0779611  29.3905228  32.5491146  32.2696398
  29.9412653  32.4208210  31.4973392  28.5516704  32.8486035  31.9191291
  36.7299345  31.2998145  35.7717121  36.7117820  32.1207026  35.2797390
  37.6519265  31.1752220  35.9967262  33.1872399  28.8142274  36.6140629
  33.7200736  28.0530562  36.3839937  32.6586480  28.5215926  37.3564784
  36.3542094  13.9202340  32.1434271  36.0106363  14.8103982  32.0673382
  36.7221056  13.7303998  31.2803856  24.4227944  26.2435871  24.9622873
  25.2603166  26.6532879  24.7456581  24.6006212  25.3035313  24.9323067
  36.3192376  23.9110951  20.6506706  35.8039000  24.6815556  20.8895094
  36.0469685  23.2376087  21.2739768  33.9039487  18.7560652  25.7091945
  33.0481084  18.3667502  25.5297583  34.3166439  18.8352613  24.8491730
  35.4338634  16.2906995  30.1083504  34.9303430  16.2537130  29.2951310
  35.7269241  17.1999738  30.1680161  31.6781520  16.3745725  29.1149686
  32.5434517  16.1788534  28.7555576  31.7459029  16.1456077  30.0419043
  41.2926651  26.6643306  22.5859880  40.5156093  26.3254465  22.1415042
  41.9718132  26.6695929  21.9114845  36.1078680  21.7838043  22.4766487
  35.8028815  22.0984193  23.3276631  37.0609122  21.8619463  22.5193820
  34.5525111  27.9428267  24.1259441  34.0246473  27.2081026  23.8132679
  34.0512614  28.7202943  23.8799410  39.5317957  26.1377287  29.2426488
  38.8741632  26.8276549  29.3306616  40.3358357  26.5273719  29.5860474
  29.2843839  18.6047933  26.4866053  29.8587591  18.3823114  25.7539246
  29.8714822  18.6736627  27.2394654  38.3423416  24.4921660  27.2930430
  38.8555298  25.1251652  27.7952139  38.9924640  23.8922855  26.9273790
  29.6113426  20.6352394  20.5061938  28.7750738  20.9727080  20.8271213
  29.4718196  20.5001374  19.5689075  31.5866507  15.4789182  25.2141122
  30.9330919  15.1638199  24.5897737  31.5446981  14.8564922  25.9400945
  32.6977712  25.7608477  17.1294414  31.7904773  25.5297730  17.3285563
  33.1948744  24.9646096  17.3168396  35.6045791  34.4705984  20.0491101
  34.9307489  34.7737681  20.6576058  35.9911613  35.2735064  19.6996558
  34.8204247  21.9671115  29.5388770  33.9026809  22.1886062  29.3810458
  35.2364391  22.0417426  28.6800477  35.6039295  23.3662531  24.6691450
  36.3511114  23.8783928  24.3598572  35.8730884  23.0446584  25.5295844
  33.8765945  25.8621072  21.6518405  32.9677164  25.5780105  21.7490874
  33.9061029  26.2820150  20.7921711  39.1085213  29.4727661  25.4209572
  38.6547540  28.6318571  25.4774763  38.4779179  30.1089060  25.7584352
  38.0518132  20.4019647  26.6510240  37.3140889  19.8897034  26.9820482
  38.3044906  19.9620029  25.8393516  37.5518152  31.3104158  26.3559390
  37.8441126  31.8709215  25.6371756  38.0616772  31.6032719  27.1112549
  38.1529759  13.1795899  27.2452009  38.4588636  12.3193263  26.9577924
  38.8782364  13.7713520  27.0451003  24.4454115  23.5826586  25.6333607
  24.2478515  22.9895947  24.9084673  23.8900779  23.2778796  26.3509546
  32.4250839  23.4749692  27.7528200  32.4799449  22.5223529  27.6770677
  31.6142041  23.6309131  28.2369498  33.5742033  27.4029815  18.9906483
  33.1361463  26.6865674  18.5312121  34.3152474  27.6305930  18.4291575
  30.3643199  22.0926752  25.5118579  29.5511065  22.3920923  25.9183771
  30.8602193  21.6982441  26.2293061  32.5151777  32.0884509  27.4452844
  32.4727956  32.3145355  26.5161376  33.4314476  31.8547884  27.5938645
  35.9617411  22.5568577  34.3433473  36.3166798  22.7840050  35.2027938
  36.6089542  22.8886953  33.7210728  41.6915148  25.6787012  25.0482802
  41.5533046  25.8688608  24.1203991  41.3351366  26.4406395  25.5050853
  29.8557274  19.6645108  31.1279814  30.4956653  19.5233867  30.4302777
  29.0234804  19.3779621  30.7518416  41.7184527  27.7463539  30.0594073
  42.1521034  27.6538829  30.9077127  42.4316108  27.7221040  29.4214089
  30.6317578  28.9647538  27.2414806  31.4258176  28.4697858  27.0397381
  29.9209270  28.4365401  26.8782512  35.4512422  31.3465634  31.5927174
  35.5049444  31.9156570  32.3604890  34.5827204  31.5167519  31.2281211
  26.9400341  23.1090620  23.3174559  26.0097929  23.0475075  23.5344521
  27.0357813  22.5866573  22.5211200  26.8585890  19.6345433  25.9052801
  27.1192708  20.5490766  25.7961961  27.6803063  19.1669875  26.0549413
  28.3310816  21.0483190  33.0751625  29.0033869  20.8400552  32.4264274
  27.5040602  20.8505276  32.6356857  42.5800077  27.7887240  32.5926959
  42.7735967  28.6933051  32.8386234  42.4800695  27.3294659  33.4265544
  34.2336388  17.6745131  35.0917286  33.5864303  18.3735080  34.9981762
  35.0037403  18.1081275  35.4593534  34.4100522  25.5125896  33.1514106
  35.3392582  25.6637055  32.9783073  33.9891552  25.6009916  32.2962752
  33.2088854  29.5376560  30.9212643  33.0699939  29.1695344  31.7938581
  32.4203450  30.0524199  30.7496601  33.8037006  34.6385657  22.2638180
  33.9788761  34.1673700  23.0783803  33.1169794  35.2651423  22.4919441
  34.7594069  28.9158163  28.3101481  34.4243901  28.8758933  29.2059131
  34.2598015  28.2502879  27.8371891  28.7338313  24.3225793  33.8354062
  28.5958111  23.5906032  34.4365601  29.6443236  24.2334693  33.5538250
  37.6953261  26.2614197  18.5838541  37.0782431  25.5361025  18.4871593
  37.2269749  27.0223557  18.2405615  31.3620613  24.0345752  33.3237742
  32.0720232  23.3938944  33.2824360  31.3189922  24.2858647  34.2463923
  39.3507392  30.9713105  36.2444321  39.2919938  30.2872326  35.5774904
  39.7526911  31.7132095  35.7924947  30.0749547  21.0210970  35.1433381
  29.5386904  20.5701708  35.7954978  29.4866256  21.1556879  34.4003846
  28.3698091  37.7875019  29.0378040  28.6094689  38.4193543  29.7157059
  27.5267287  37.4363059  29.3243399  39.3524799  28.9352689  34.4758301
  38.4651578  28.5978611  34.5984700  39.9223351  28.2035721  34.7127066
  21.0053947  25.2676781  27.8001352  21.6924986  24.9538511  27.2122368
  20.8502075  26.1718146  27.5268604  25.8088669  20.1566978  32.2286376
  25.7246857  19.5492647  31.4936786  24.9871375  20.6475996  32.2295872
  32.8825953  33.5954142  31.4419544  32.8096124  34.4009113  31.9538849
  32.4403346  33.7946108  30.6167565  32.6715732  32.8325912  24.9522366
  31.8883254  33.3747592  25.0460590  33.3708478  33.3499891  25.3516607
  35.9812383  18.6420541  27.5956571  36.4781082  17.8890504  27.2757641
  35.2099364  18.6784858  27.0299780  43.8342140  24.3460907  29.2374862
  43.8232016  25.2285622  28.8668796  42.9659519  23.9932458  29.0429400
  35.3424636  33.4940976  33.5977703  36.0552609  34.1288441  33.5253604
  34.8514665  33.5904842  32.7817705  37.0642163  27.3992228  25.1694994
  36.1298442  27.5193691  24.9999699  37.2418832  26.4964695  24.9055004
  32.5647351  20.7837924  27.3228256  32.1945139  20.2308965  28.0109161
  33.0606444  20.1796058  26.7703256  40.4514715  23.2409548  25.7045028
  40.9175167  24.0737539  25.6305331  40.9022215  22.7754529  26.4090287
  30.3936550  31.2435419  34.4183273  31.0946009  31.8771902  34.5712668
  29.9231665  31.5850151  33.6578913  38.5190946  29.5853369  22.7031181
  38.7950790  29.4709964  23.6125055  37.6495444  29.1870854  22.6643354
  38.4231377  15.6090135  29.7435930  37.5094457  15.8394362  29.9118137
  38.8524479  15.6928579  30.5949962  38.1937836  23.7980027  32.2435824
  37.5409286  24.0455934  31.5888277  38.5718216  22.9844165  31.9098301
  35.1545010  33.8339720  26.3463994  35.3367404  33.0161376  26.8091746
  35.9777996  34.0507412  25.9088884  35.4887175  32.7607905  23.6079043
  36.0174942  32.2500360  22.9949205  35.7515395  32.4450435  24.4724576
  34.2425409  24.5399838  38.7301861  33.5666046  24.4393967  39.4004236
  35.0653043  24.3839051  39.1937858  25.9904268  30.7771774  31.3514376
  26.5757705  30.0315462  31.4842280  25.7929106  31.0875731  32.2351040
  28.8442923  33.8123022  26.3676819  28.1753298  34.2969149  25.8840859
  28.7055793  34.0592242  27.2820197  20.5821923  23.3477374  30.0718819
  20.6206022  22.8140965  30.8655937  20.0762216  22.8212580  29.4529796
  32.9848192  35.8466765  32.9659477  33.5366500  36.0098387  33.7308562
  33.3254385  36.4371203  32.2939502  27.9612685  18.1941915  33.5681362
  28.0254011  19.0556746  33.1558759  27.8979805  17.5815917  32.8353720
  27.4364958  20.2665048  37.2154396  28.0636996  19.8842125  37.8291920
  26.5792876  20.0479249  37.5810088  24.2130500  22.0741477  23.1472751
  24.5083941  21.1652155  23.0939804  23.3118536  22.0529216  22.8253753
  36.1216579  33.7948741  29.9523159  35.9967718  32.9938481  29.4434105
  36.7795670  34.2894934  29.4637129  27.7424747  20.1497473  29.1300299
  27.0211333  20.7633441  28.9907773  28.5318003  20.6855238  29.0516945
  38.1851487  31.5957761  31.5802709  37.2381823  31.4763112  31.5081036
  38.5334261  30.7080259  31.6628971  30.5451061  17.4851900  35.4040951
  31.0685463  17.7314196  36.1667260  30.3263394  18.3171935  34.9844088
  25.9418342  19.7555574  23.2712076  25.6131048  18.8752953  23.0887182
  26.2957713  19.7003243  24.1588465  35.1897921  31.3910477  27.7807061
  35.0422883  30.4627184  27.9614631  36.0151414  31.4130568  27.2964137
  29.0560165  20.0428544  23.6387554  29.3956238  20.5714465  22.9166162
  29.5032285  20.3808950  24.4146120  38.7932043  32.2139036  28.8671934
  39.7178590  32.0081897  28.7296385  38.6247346  31.9655437  29.7761276
  31.7503606  18.4265595  33.0890622  31.4100426  17.6273408  33.4911301
  31.0442612  18.7267306  32.5167455  32.4020078  15.5114907  31.5417945
  33.2246147  15.0375385  31.4196835  32.6458141  16.2905391  32.0416631
  31.0428312  18.5403166  21.8380846  31.7636675  18.9184418  21.3344563
  30.4193616  19.2592042  21.9415824  35.1859435  19.2448315  22.7739179
  35.4023049  20.1272953  22.4728007  34.7053502  18.8534528  22.0444821
  29.9258656  22.2034028  29.3509923  29.7803237  22.5174331  30.2434205
  29.4483860  22.8218928  28.7980822  31.7855039  19.1936576  29.3990813
  31.7716608  18.2977669  29.0623111  32.5027467  19.2007240  30.0329099
  33.6381170  19.6273916  31.4443940  33.3798948  20.5490987  31.4428271
  33.1066210  19.2304351  32.1344404  38.5827359  32.7324703  24.2234026
  38.7564236  32.1671126  23.4707878  39.0756250  33.5325598  24.0413516
  24.4004319  24.7439372  32.2897584  23.8557787  25.5199180  32.4217859
  25.2783668  25.0910177  32.1316706  31.1891935  18.0750956  24.6678383
  31.3107846  17.1467602  24.8669270  30.8993978  18.0889642  23.7556698
  34.0583126  15.7605867  27.8045103  34.0804822  15.8245200  26.8497082
  34.4751185  14.9210375  27.9985609  44.4366750  25.4961126  25.8424325
  44.8797896  24.7468451  25.4443449  43.5593260  25.4871262  25.4598057
  39.5702531  32.0491468  21.3230924  40.2653436  32.6698160  21.5418239
  39.9125681  31.1986819  21.5983302  25.1870340  23.8709269  35.1827741
  24.4452076  24.0191904  35.7692372  24.8663085  24.1317534  34.3194491
  41.4693954  29.4991173  22.8518255  41.9945278  29.8378446  22.1267575
  41.3816307  28.5638188  22.6681389  33.1314003  33.4125247  34.9808131
  33.4401130  33.1674394  35.8530831  33.9289485  33.6171885  34.4927002
  33.1534615  35.5663156  27.2113508  32.7139605  35.0739535  27.9046365
  33.9042732  35.0236124  26.9705583  25.6326954  31.7574697  27.2138136
  26.4584974  31.4578469  26.8336779  25.2821006  30.9882320  27.6627925
  30.6008487  31.1101165  29.2835810  29.9788497  30.4471871  28.9838037
  31.2713354  31.1362297  28.6009457  23.8335559  29.6761024  28.1727070
  22.9967467  29.2483198  27.9911071  23.8059205  29.8693467  29.1097861
  30.6733015  19.5882954  38.8768316  30.7221170  20.4645076  38.4946085
  31.2155529  19.0460347  38.3039959  41.2785735  26.9816543  35.4702181
  41.3283740  26.8166551  36.4117704  41.1699659  26.1143802  35.0800062
  30.1621994  29.6605089  22.7594270  30.3110115  30.3440553  22.1060943
  30.9688438  29.6410179  23.2743726  38.5689498  22.9647471  36.7861488
  39.4699361  22.8253936  36.4945486  38.6437472  23.1301926  37.7259665
  32.9032303  20.3414326  35.6314674  32.0335613  20.6347892  35.3597263
  33.1391784  20.9254771  36.3521938  43.9799615  26.9666364  28.2346773
  44.8146506  27.4056168  28.3984333  44.1158743  26.4905018  27.4155019
  41.0291121  24.5246099  34.1824261  41.5045242  24.7173746  33.3743112
  40.1056686  24.5805285  33.9367644  27.9174627  25.6870266  23.7655339
  27.6720669  24.7832596  23.9635549  28.0870542  25.6887417  22.8234817
  35.6071337  16.5593943  33.1480095  36.1253281  17.2954970  32.8226583
  35.2526470  16.8657936  33.9826854  27.1870275  21.4198624  21.2641500
  26.4939520  21.4942979  20.6081536  26.9422027  20.6558968  21.7863017
  35.8583931  12.9794225  28.6680991  36.1385685  12.3117414  29.2941418
  36.6434538  13.1723321  28.1555655  33.6617400  32.1553219  20.2306017
  33.0891367  32.7743406  19.7776489  34.2350193  32.7052581  20.7645939
  39.7292790  21.4011859  32.4152566  40.6810212  21.5009957  32.4364790
  39.5596240  20.6090128  32.9250651  37.7507169  18.4867443  32.6011967
  37.1557101  18.7672455  31.9058456  37.4656866  18.9761344  33.3728708
  36.8814659  32.4390369  21.3614600  37.8145333  32.3735931  21.5647475
  36.7937872  33.2746636  20.9029132  39.5102676  31.7556240  18.3218547
  39.4316308  31.4216103  19.2154305  40.3312343  32.2478008  18.3210020
  42.2080867  24.6217979  31.5294866  42.1757187  23.6833980  31.7154550
  42.8181491  24.7002016  30.7960691  34.0464198  23.4914032  17.5722070
  34.9923303  23.3620240  17.6410488  33.6678443  22.7528694  18.0491498
  42.3575356  21.4129022  31.5753149  41.8414404  20.6287479  31.3883078
  43.2415304  21.0847739  31.7399669  40.0186083  15.1570038  27.5348962
  39.8210904  14.8485126  28.4192294  40.6285788  15.8831677  27.6646892
  48.0257417  25.6833986  30.6700903  48.7560806  25.4219274  31.2308606
  47.4164363  24.9462708  30.7102971  46.1072714  23.8241848  31.2675354
  45.3805878  23.6897813  30.6591846  45.6920001  24.1318677  32.0732072
  33.9302891  27.5431778  39.0322727  34.8505900  27.7210377  39.2262773
  33.8952474  26.5987824  38.8802426  23.1485056  22.7370372  27.9576002
  22.8287840  21.8835680  27.6650376  22.6018484  22.9518950  28.7133969
  26.9264963  25.4532813  31.6745508  27.1450973  26.3849921  31.6933542
  27.3390737  25.0940787  32.4600312  33.8469181  15.9600898  23.6621196
  33.0369909  15.6147983  24.0376443  34.5353598  15.6508442  24.2508808
  35.7759729  15.0378945  25.2845493  36.3290768  15.4574398  25.9435516
  36.0129816  14.1114693  25.3268449  31.7992829  21.0266019  41.0648257
  31.6989556  21.9760376  40.9960348  31.5814371  20.6984257  40.1924327
  23.0173316  26.3573283  29.9269123  22.3236787  25.9427236  29.4139078
  23.7646307  26.3993820  29.3302542  39.1538536  17.1479470  24.7924157
  38.5737206  17.8064274  24.4102210  38.8874469  16.3256815  24.3811575
  37.6042103  16.5484528  26.9945478  38.1041881  16.6601062  26.1859797
  38.2477711  16.2445581  27.6346286  31.6624099  24.4563157  39.8813319
  31.1791180  25.2563518  40.0877208  31.7485038  24.4671102  38.9280763
  24.9310058  26.2891537  27.8035138  24.9080746  26.3879224  26.8517021
  25.2410695  27.1356688  28.1252304  27.5897436  28.3467692  31.9181752
  28.5440690  28.3151634  31.8511684  27.3909960  27.8858316  32.7331978
  28.1796818  26.9168808  34.4852550  28.9989707  27.4112887  34.5087387
  28.4533626  26.0000776  34.4570118  37.9363414  19.3079560  23.8480506
  37.0489270  19.5929211  23.6300700  38.3517404  19.1473324  23.0007783
  41.2877951  19.3326081  27.5634845  42.0638341  19.8222534  27.8359462
  40.5626085  19.7584136  28.0206714  43.7250509  20.0453701  28.6208786
  44.3195000  19.8049437  27.9102094  43.7977093  19.3260831  29.2482322
  25.9447665  33.8887312  28.9351950  25.8102133  33.1287713  28.3689948
  25.5279727  34.6128211  28.4680739  37.0806628  29.0724235  17.9428526
  37.7842478  29.2774238  18.5586181  36.3569277  29.6400997  18.2077609
  37.9104438  24.8234096  24.0630796  37.8539640  25.2802648  23.2238428
  38.4632781  24.0624781  23.8853639  41.7209244  20.6123828  24.8880915
  41.4646178  20.2120464  25.7189123  41.0962112  21.3267622  24.7631054
  46.0321582  23.3519902  27.3952207  45.4721140  23.4213091  28.1683769
  45.4265085  23.1760886  26.6751703  29.1016791  34.7856629  29.1470393
  28.9849175  35.7302061  29.0449083  28.2809237  34.4830190  29.5356192
  38.9893325  29.5106764  19.9926986  39.8238929  29.0787963  19.8104460
  38.8277668  29.3388778  20.9203880  38.6439218  26.0138878  21.3583325
  38.5888021  25.8483149  20.4171769  38.0185273  26.7214911  21.5145515
  23.4331733  21.2506942  35.1844747  24.0790596  20.7405896  35.6731972
  23.2248884  21.9875624  35.7588172  35.9585125  28.3187790  40.6836888
  36.8276284  28.4928442  40.3223523  35.4791876  29.1382206  40.5612617
  31.9535343  15.5146987  20.9368643  31.9414013  16.4588827  21.0936914
  32.8458765  15.3317132  20.6428105  30.1271305  35.4384891  32.3626321
  31.0298552  35.4708501  32.6792816  29.9008675  34.5085341  32.3772657
  31.8824907  34.1915877  29.0236400  30.9320538  34.1917739  28.9100772
  32.1857393  33.4448612  28.5072435  35.7687462  12.1089763  25.1914580
  35.0019858  11.5548250  25.3371263  36.1798167  12.1811632  26.0528732
  27.7729224  18.3974559  39.2819761  28.6360685  18.0411364  39.4923086
  27.1994634  18.0588454  39.9695166  47.6177600  40.0276415  30.0882162
  48.2556010  39.9083163  29.3845503  47.4998443  40.9757259  30.1470115
  44.4267307  39.9803844  30.0243687  44.0885818  39.8644908  29.1364222
  45.2957075  39.5795009  30.0044693  40.2854122  41.8339320  26.0140578
  39.7218988  41.7429257  25.2456866  40.1706517  41.0139224  26.4943071
  37.8318554  43.3290512  28.8524799  38.6239846  42.9881336  28.4371098
  38.0715205  43.4385487  29.7726952  45.8653681  45.5010288  21.3255043
  45.2141661  46.0864368  20.9389057  46.6598044  46.0316483  21.3850080
  39.7909308  42.5899425  21.7242177  40.5640184  42.0428412  21.5855053
  40.1434707  43.4543674  21.9356639  41.6294351  43.9175807  34.9309077
  41.3384217  44.8221438  34.8155743  42.2651335  43.9592335  35.6453146
  42.5550558  41.2952656  31.5210436  43.1514130  41.0708678  30.8067399
  42.6125529  40.5537401  32.1235884  42.1275586  38.7492091  19.3560627
  42.3801107  38.2273612  18.5944090  41.1900145  38.5858236  19.4587311
  47.1718869  37.7527869  27.1635370  47.9581958  37.3347292  26.8125787
  47.4357573  38.6573961  27.3317019  47.3428946  43.1900720  21.8624027
  46.7074779  43.2635346  22.5744932  47.0126353  43.7794318  21.1843107
  52.5727296  37.6903103  28.0668349  53.3052468  37.1202319  28.3006178
  51.8166652  37.3024703  28.5074855  41.8471875  40.6520197  21.5585002
  41.7308133  39.9765100  22.2266087  41.9574135  40.1652571  20.7417155
  44.1903416  40.1130344  25.2631691  43.8261623  39.5860965  25.9744613
  45.0470532  39.7228813  25.0898177  50.0952716  31.4024677  32.5262958
  49.7636041  32.2720088  32.3024173  49.4998330  31.0860961  33.2056988
  43.8308903  35.1420244  20.2593040  43.9983305  36.0100480  20.6263511
  43.6406072  35.3047525  19.3354329  46.5884236  43.6037223  31.9258870
  46.2884959  44.5062261  31.8174678  46.2435295  43.3369406  32.7780023
  40.0396717  40.0551019  27.9595575  39.1147214  39.9227234  28.1673267
  40.2881131  40.8345239  28.4565517  49.9881380  36.1219763  29.6056308
  49.0798257  36.0535171  29.3115069  49.9368976  36.5991708  30.4338133
  43.8098124  37.5977901  21.2439707  43.6897749  38.0434952  22.0825187
  43.1150712  37.9463219  20.6853245  37.4005528  39.6984293  28.7939364
  37.5297910  39.9518772  29.7078776  36.7202980  40.2912001  28.4744019
  41.5705016  50.3681543  24.8929838  41.4929045  51.3189368  24.9718319
  40.9666659  50.0227415  25.5504764  51.8543026  34.3236201  31.3834182
  51.2117406  34.6168734  30.7373976  51.3497955  34.2089122  32.1887378
  49.5083190  38.0699374  22.0720041  50.4201046  38.3026761  21.8967738
  48.9992837  38.6536419  21.5095119  42.3168618  40.3494862  37.1109172
  43.0583302  40.8879906  36.8343996  41.6105603  40.9761150  37.2680724
  47.7923957  42.4924002  35.7081333  48.2007313  42.0506413  34.9635966
  47.0701219  41.9176630  35.9615526  44.1455028  37.4296609  33.0814890
  44.9916223  37.8536023  33.2249539  44.0853665  36.7730233  33.7753453
  48.1152772  43.0525193  29.4633622  47.4861635  43.2170907  28.7609690
  47.7278434  43.4666802  30.2344586  51.9942004  43.9879631  26.8177986
  51.3093042  44.3678532  26.2675019  52.0785853  44.5974957  27.5509934
  49.2492936  41.6339590  33.4173330  49.4609831  42.2771350  32.7407711
  49.2022684  40.8001906  32.9495260  46.8519165  34.2457410  30.3209902
  45.9903644  34.5438664  30.6126639  46.8781599  34.4627809  29.3890934
  43.6680734  42.7899601  26.7283707  44.1319080  43.0687304  25.9388330
  43.4037532  41.8883046  26.5456798  40.5604815  42.3371082  29.6663471
  41.1306172  42.7658351  29.0280955  41.1512927  42.0553667  30.3647656
  42.6049620  38.9122753  23.5373273  43.3073663  39.3643797  24.0047199
  42.2730249  38.2706572  24.1653166  36.3474954  37.1706306  28.8390406
  35.5574008  37.4263834  28.3630517  36.8386201  37.9854644  28.9442447
  50.3638764  44.5111545  31.5895687  51.1856207  44.1091732  31.3078369
  50.3601166  44.4079779  32.5411803  38.2989699  37.5350885  25.7973883
  37.5020863  37.6469579  26.3157378  38.0715292  37.8737537  24.9314773
  44.1295367  44.0595588  33.7456397  44.1939800  44.5215996  34.5814569
  43.4206291  43.4292953  33.8738707  34.6312657  37.4236796  31.2705397
  34.8820695  38.3083806  31.5362973  35.1672205  37.2441398  30.4980489
  58.4544757  40.8550294  27.9380658  57.7008465  40.2857692  27.7824663
  58.5892298  40.8212958  28.8851293  43.8443385  45.7263696  23.6135378
  43.7089059  46.5715232  24.0420226  44.3853197  45.9282974  22.8501312
  37.2972782  43.2439134  24.1863303  37.8097303  44.0382384  24.3368868
  37.9495495  42.5465424  24.1196904  39.1067667  46.3604890  26.2686056
  39.2834295  47.2822855  26.0807040  39.9024500  46.0463309  26.6980436
  38.3920023  38.4069522  36.1448219  38.2773538  37.5054779  36.4455318
  37.5364541  38.6533219  35.7933036  40.2298982  47.8783064  32.2696398
  40.7806407  47.7500127  31.4973392  39.3910458  48.1777953  31.9191291
  47.5693099  46.6290062  35.7717121  47.5511574  47.4498943  35.2797390
  48.4913019  46.5044138  35.9967262  44.0266153  44.1434192  36.6140629
  44.5594490  43.3822480  36.3839937  43.4980234  43.8507844  37.3564784
  47.1935848  29.2494258  32.1434271  46.8500118  30.1395899  32.0673382
  47.5614811  29.0595915  31.2803856  35.2621699  41.5727788  24.9622873
  36.0996921  41.9824797  24.7456581  35.4399967  40.6327230  24.9323067
  47.1586131  39.2402869  20.6506706  46.6432754  40.0107474  20.8895094
  46.8863439  38.5668005  21.2739768  44.7433242  34.0852570  25.7091945
  43.8874838  33.6959420  25.5297583  45.1560194  34.1644530  24.8491730
  46.2732389  31.6198913  30.1083504  45.7697184  31.5829048  29.2951310
  46.5662995  32.5291656  30.1680161  42.5175274  31.7037643  29.1149686
  43.3828271  31.5080451  28.7555576  42.5852783  31.4747994  30.0419043
  52.1320405  41.9935224  22.5859880  51.3549848  41.6546383  22.1415042
  52.8111886  41.9987847  21.9114845  46.9472434  37.1129961  22.4766487
  46.6422570  37.4276110  23.3276631  47.9002876  37.1911381  22.5193820
  45.3918866  43.2720184  24.1259441  44.8640228  42.5372944  23.8132679
  44.8906369  44.0494861  23.8799410  50.3711712  41.4669205  29.2426488
  49.7135386  42.1568466  29.3306616  51.1752111  41.8565637  29.5860474
  40.1237594  33.9339851  26.4866053  40.6981345  33.7115032  25.7539246
  40.7108576  34.0028545  27.2394654  49.1817171  39.8213577  27.2930430
  49.6949053  40.4543569  27.7952139  49.8318395  39.2214773  26.9273790
  40.4507181  35.9644312  20.5061938  39.6144493  36.3018998  20.8271213
  40.3111950  35.8293291  19.5689075  42.4260261  30.8081099  25.2141122
  41.7724674  30.4930117  24.5897737  42.3840735  30.1856840  25.9400945
  43.5371466  41.0900395  17.1294414  42.6298528  40.8589648  17.3285563
  44.0342498  40.2938014  17.3168396  46.4439545  49.7997902  20.0491101
  45.7701244  50.1029599  20.6576058  46.8305367  50.6026982  19.6996558
  45.6598002  37.2963033  29.5388770  44.7420563  37.5177980  29.3810458
  46.0758145  37.3709344  28.6800477  46.4433049  38.6954449  24.6691450
  47.1904868  39.2075846  24.3598572  46.7124639  38.3738501  25.5295844
  44.7159700  41.1912989  21.6518405  43.8070919  40.9072022  21.7490874
  44.7454783  41.6112068  20.7921711  49.9478967  44.8019579  25.4209572
  49.4941294  43.9610489  25.4774763  49.3172934  45.4380977  25.7584352
  48.8911887  35.7311565  26.6510240  48.1534643  35.2188951  26.9820482
  49.1438660  35.2911947  25.8393516  48.3911906  46.6396076  26.3559390
  48.6834881  47.2001133  25.6371756  48.9010527  46.9324637  27.1112549
  48.9923514  28.5087817  27.2452009  49.2982391  27.6485180  26.9577924
  49.7176119  29.1005437  27.0451003  35.2847870  38.9118504  25.6333607
  35.0872270  38.3187864  24.9084673  34.7294534  38.6070714  26.3509546
  43.2644594  38.8041610  27.7528200  43.3193203  37.8515446  27.6770677
  42.4535796  38.9601049  28.2369498  44.4135787  42.7321733  18.9906483
  43.9755217  42.0157592  18.5312121  45.1546228  42.9597848  18.4291575
  41.2036954  37.4218670  25.5118579  40.3904819  37.7212840  25.9183771
  41.6995948  37.0274359  26.2293061  43.3545531  47.4176427  27.4452844
  43.3121710  47.6437273  26.5161376  44.2708230  47.1839801  27.5938645
  46.8011165  37.8860494  34.3433473  47.1560553  38.1131967  35.2027938
  47.4483296  38.2178871  33.7210728  52.5308902  41.0078930  25.0482802
  52.3926801  41.1980526  24.1203991  52.1745121  41.7698313  25.5050853
  40.6951028  34.9937025  31.1279814  41.3350408  34.8525784  30.4302777
  39.8628559  34.7071539  30.7518416  52.5578282  43.0755457  30.0594073
  52.9914788  42.9830746  30.9077127  53.2709862  43.0512958  29.4214089
  41.4711332  44.2939456  27.2414806  42.2651931  43.7989776  27.0397381
  40.7603025  43.7657319  26.8782512  46.2906177  46.6757551  31.5927174
  46.3443199  47.2448488  32.3604890  45.4220958  46.8459436  31.2281211
  37.7794096  38.4382537  23.3174559  36.8491684  38.3766993  23.5344521
  37.8751568  37.9158490  22.5211200  37.6979645  34.9637350  25.9052801
  37.9586462  35.8782684  25.7961961  38.5196817  34.4961793  26.0549413
  39.1704570  36.3775107  33.0751625  39.8427623  36.1692470  32.4264274
  38.3434357  36.1797193  32.6356857  53.4193831  43.1179158  32.5926959
  53.6129721  44.0224968  32.8386234  53.3194449  42.6586577  33.4265544
  45.0730142  33.0037048  35.0917286  44.4258057  33.7026998  34.9981762
  45.8431157  33.4373192  35.4593534  45.2494276  40.8417813  33.1514106
  46.1786336  40.9928973  32.9783073  44.8285306  40.9301834  32.2962752
  44.0482608  44.8668478  30.9212643  43.9093694  44.4987262  31.7938581
  43.2597204  45.3816117  30.7496601  44.6430760  49.9677574  22.2638180
  44.8182516  49.4965617  23.0783803  43.9563548  50.5943340  22.4919441
  45.5987823  44.2450080  28.3101481  45.2637656  44.2050850  29.2059131
  45.0991769  43.5794796  27.8371891  39.5732067  39.6517710  33.8354062
  39.4351865  38.9197949  34.4365601  40.4836991  39.5626611  33.5538250
  48.5347015  41.5906115  18.5838541  47.9176186  40.8652943  18.4871593
  48.0663503  42.3515475  18.2405615  42.2014368  39.3637670  33.3237742
  42.9113987  38.7230862  33.2824360  42.1583676  39.6150565  34.2463923
  50.1901147  46.3005023  36.2444321  50.1313693  45.6164243  35.5774904
  50.5920665  47.0424013  35.7924947  40.9143302  36.3502888  35.1433381
  40.3780659  35.8993626  35.7954978  40.3260010  36.4848796  34.4003846
  39.2091845  53.1166937  29.0378040  39.4488444  53.7485461  29.7157059
  38.3661042  52.7654977  29.3243399  40.3245561  35.8091539  17.7059845
  39.4475027  35.6880340  17.3422092  40.8003314  35.0177617  17.4538734
  50.1918554  44.2644607  34.4758301  49.3045333  43.9270529  34.5984700
  50.7617105  43.5327638  34.7127066  31.8447701  40.5968699  27.8001352
  32.5318741  40.2830429  27.2122368  31.6895830  41.5010063  27.5268604
  36.6482423  35.4858895  32.2286376  36.5640612  34.8784565  31.4936786
  35.8265130  35.9767914  32.2295872  43.7219707  48.9246059  31.4419544
  43.6489879  49.7301031  31.9538849  43.2797100  49.1238025  30.6167565
  43.5109487  48.1617829  24.9522366  42.7277009  48.7039510  25.0460590
  44.2102232  48.6791809  25.3516607  46.8206137  33.9712459  27.5956571
  47.3174837  33.2182421  27.2757641  46.0493119  34.0076776  27.0299780
  54.6735894  39.6752824  29.2374862  54.6625771  40.5577540  28.8668796
  53.8053274  39.3224375  29.0429400  46.1818391  48.8232893  33.5977703
  46.8946363  49.4580358  33.5253604  45.6908419  48.9196759  32.7817705
  47.9035918  42.7284146  25.1694994  46.9692196  42.8485609  24.9999699
  48.0812586  41.8256613  24.9055004  43.4041106  36.1129842  27.3228256
  43.0338893  35.5600882  28.0109161  43.9000198  35.5087975  26.7703256
  51.2908469  38.5701465  25.7045028  51.7568921  39.4029457  25.6305331
  51.7415970  38.1046447  26.4090287  41.2330304  46.5727337  34.4183273
  41.9339764  47.2063820  34.5712668  40.7625419  46.9142068  33.6578913
  49.3584700  44.9145287  22.7031181  49.6344544  44.8001881  23.6125055
  48.4889199  44.5162772  22.6643354  49.2625132  30.9382052  29.7435930
  48.3488212  31.1686279  29.9118137  49.6918233  31.0220496  30.5949962
  49.0331590  39.1271944  32.2435824  48.3803041  39.3747852  31.5888277
  49.4111970  38.3136083  31.9098301  45.9938764  49.1631638  26.3463994
  46.1761159  48.3453293  26.8091746  46.8171750  49.3799330  25.9088884
  46.3280930  48.0899823  23.6079043  46.8568696  47.5792277  22.9949205
  46.5909149  47.7742353  24.4724576  36.8298022  46.1063692  31.3514376
  37.4151459  45.3607380  31.4842280  36.6322861  46.4167649  32.2351040
  39.6836678  49.1414939  26.3676819  39.0147053  49.6261067  25.8840859
  39.5449547  49.3884160  27.2820197  31.4215677  38.6769292  30.0718819
  31.4599777  38.1432883  30.8655937  30.9155970  38.1504498  29.4529796
  38.8006439  33.5233833  33.5681362  38.8647766  34.3848664  33.1558759
  38.7373560  32.9107834  32.8353720  38.2758712  35.5956965  37.2154396
  38.9030751  35.2134043  37.8291920  37.4186631  35.3771167  37.5810088
  35.0524255  37.4033394  23.1472751  35.3477696  36.4944073  23.0939804
  34.1512291  37.3821134  22.8253753  46.9610334  49.1240658  29.9523159
  46.8361473  48.3230398  29.4434105  47.6189425  49.6186852  29.4637129
  38.5818502  35.4789391  29.1300299  37.8605088  36.0925359  28.9907773
  39.3711758  36.0147156  29.0516945  49.0245242  46.9249678  31.5802709
  48.0775577  46.8055030  31.5081036  49.3728015  46.0372177  31.6628971
  41.3844815  32.8143817  35.4040951  41.9079217  33.0606114  36.1667260
  41.1657149  33.6463852  34.9844088  36.7812096  35.0847492  23.2712076
  36.4524802  34.2044871  23.0887182  37.1351467  35.0295161  24.1588465
  46.0291675  46.7202395  27.7807061  45.8816638  45.7919102  27.9614631
  46.8545169  46.7422485  27.2964137  39.8953919  35.3720462  23.6387554
  40.2349992  35.9006383  22.9166162  40.3426040  35.7100868  24.4146120
  49.6325797  47.5430953  28.8671934  50.5572345  47.3373815  28.7296385
  49.4641100  47.2947355  29.7761276  42.5897360  33.7557512  33.0890622
  42.2494181  32.9565326  33.4911301  41.8836367  34.0559223  32.5167455
  43.2413832  30.8406825  31.5417945  44.0639901  30.3667303  31.4196835
  43.4851896  31.6197309  32.0416631  41.8822067  33.8695083  21.8380846
  42.6030429  34.2476336  21.3344563  41.2587371  34.5883960  21.9415824
  46.0253190  34.5740232  22.7739179  46.2416804  35.4564870  22.4728007
  45.5447257  34.1826446  22.0444821  40.7652411  37.5325946  29.3509923
  40.6196992  37.8466249  30.2434205  40.2877615  38.1510846  28.7980822
  42.6248794  34.5228494  29.3990813  42.6110363  33.6269587  29.0623111
  43.3421222  34.5299157  30.0329099  44.4774925  34.9565834  31.4443940
  44.2192702  35.8782904  31.4428271  43.9459965  34.5596268  32.1344404
  49.4221113  48.0616621  24.2234026  49.5957991  47.4963043  23.4707878
  49.9150004  48.8617516  24.0413516  35.2398073  40.0731290  32.2897584
  34.6951541  40.8491098  32.4217859  36.1177423  40.4202094  32.1316706
  42.0285690  33.4042874  24.6678383  42.1501601  32.4759520  24.8669270
  41.7387732  33.4181560  23.7556698  44.8976880  31.0897784  27.8045103
  44.9198577  31.1537117  26.8497082  45.3144939  30.2502293  27.9985609
  55.2760504  40.8253044  25.8424325  55.7191650  40.0760369  25.4443449
  54.3987015  40.8163180  25.4598057  50.4096286  47.3783385  21.3230924
  51.1047190  47.9990078  21.5418239  50.7519436  46.5278736  21.5983302
  36.0264095  39.2001186  35.1827741  35.2845831  39.3483822  35.7692372
  35.7056839  39.4609452  34.3194491  52.3087709  44.8283091  22.8518255
  52.8339033  45.1670364  22.1267575  52.2210061  43.8930106  22.6681389
  43.9707758  48.7417164  34.9808131  44.2794884  48.4966311  35.8530831
  44.7683240  48.9463803  34.4927002  43.9928370  50.8955074  27.2113508
  43.5533360  50.4031453  27.9046365  44.7436487  50.3528042  26.9705583
  36.4720709  47.0866615  27.2138136  37.2978729  46.7870387  26.8336779
  36.1214761  46.3174237  27.6627925  41.4402242  46.4393083  29.2835810
  40.8182251  45.7763788  28.9838037  42.1107109  46.4654215  28.6009457
  34.6729314  45.0052941  28.1727070  33.8361222  44.5775116  27.9911071
  34.6452959  45.1985385  29.1097861  51.9981615  45.4615994  38.1569453
  51.2077159  45.4440133  37.6173952  51.7614970  46.0004288  38.9118489
  52.1179490  42.3108461  35.4702181  52.1677495  42.1458468  36.4117704
  52.0093413  41.4435720  35.0800062  41.0015749  44.9897007  22.7594270
  41.1503869  45.6732471  22.1060943  41.8082192  44.9702097  23.2743726
  53.6197687  44.7305402  35.7144203  53.3282495  45.0935383  36.5507664
  53.0069818  44.0172411  35.5357535  54.8193369  42.2958282  28.2346773
  55.6540261  42.7348086  28.3984333  54.9552498  41.8196935  27.4155019
  51.8684875  39.8538017  34.1824261  52.3438997  40.0465663  33.3743112
  50.9450440  39.9097203  33.9367644  38.7568382  41.0162184  23.7655339
  38.5114424  40.1124514  23.9635549  38.9264296  41.0179335  22.8234817
  46.4465092  31.8885861  33.1480095  46.9647035  32.6246887  32.8226583
  46.0920224  32.1949854  33.9826854  38.0264029  36.7490542  21.2641500
  37.3333274  36.8234897  20.6081536  37.7815781  35.9850885  21.7863017
  46.6977686  28.3086143  28.6680991  46.9779439  27.6409332  29.2941418
  47.4828293  28.5015239  28.1555655  44.5011154  47.4845137  20.2306017
  43.9285121  48.1035324  19.7776489  45.0743948  48.0344499  20.7645939
  50.5686544  36.7303777  32.4152566  51.5203967  36.8301875  32.4364790
  50.3989994  35.9382046  32.9250651  48.5900924  33.8159360  32.6011967
  47.9950856  34.0964373  31.9058456  48.3050620  34.3053261  33.3728708
  47.7208414  47.7682287  21.3614600  48.6539087  47.7027849  21.5647475
  47.6331627  48.6038554  20.9029132  50.3496431  47.0848157  18.3218547
  50.2710062  46.7508021  19.2154305  51.1706097  47.5769925  18.3210020
  53.0474622  39.9509897  31.5294866  53.0150942  39.0125897  31.7154550
  53.6575245  40.0293933  30.7960691  44.8857953  38.8205950  17.5722070
  45.8317057  38.6912158  17.6410488  44.5072198  38.0820612  18.0491498
  53.1969110  36.7420940  31.5753149  52.6808159  35.9579397  31.3883078
  54.0809059  36.4139657  31.7399669  50.8579837  30.4861956  27.5348962
  50.6604658  30.1777044  28.4192294  51.4679543  31.2123595  27.6646892
  58.8651172  41.0125904  30.6700903  59.5954560  40.7511192  31.2308606
  58.2558117  40.2754626  30.7102971  56.9466469  39.1533766  31.2675354
  56.2199632  39.0189731  30.6591846  56.5313756  39.4610595  32.0732072
  43.0700870  36.7455926  17.5076955  42.1632325  36.4489039  17.5839669
  43.3476851  36.4485744  16.6411241  33.9878810  38.0662290  27.9576002
  33.6681595  37.2127598  27.6650376  33.4412238  38.2810868  28.7133969
  37.7658718  40.7824731  31.6745508  37.9844728  41.7141838  31.6933542
  38.1784492  40.4232705  32.4600312  44.6862936  31.2892816  23.6621196
  43.8763664  30.9439901  24.0376443  45.3747353  30.9800360  24.2508808
  46.6153484  30.3670863  25.2845493  47.1684522  30.7866316  25.9435516
  46.8523570  29.4406611  25.3268449  41.8399654  33.6042861  17.6488934
  42.7018818  33.9297760  17.9084752  42.0249999  32.8174357  17.1362000
  33.8567070  41.6865201  29.9269123  33.1630542  41.2719154  29.4139078
  34.6040061  41.7285738  29.3302542  49.9932291  32.4771388  24.7924157
  49.4130960  33.1356192  24.4102210  49.7268224  31.6548732  24.3811575
  48.4435857  31.8776445  26.9945478  48.9435636  31.9892980  26.1859797
  49.0871465  31.5737498  27.6346286  35.7703813  41.6183455  27.8035138
  35.7474501  41.7171142  26.8517021  36.0804449  42.4648606  28.1252304
  38.4291191  43.6759610  31.9181752  39.3834444  43.6443552  31.8511684
  38.2303714  43.2150234  32.7331978  39.0190573  42.2460726  34.4852550
  39.8383462  42.7404805  34.5087387  39.2927380  41.3292694  34.4570118
  48.7757169  34.6371478  23.8480506  47.8883024  34.9221129  23.6300700
  49.1911158  34.4765242  23.0007783  52.1271705  34.6617999  27.5634845
  52.9032095  35.1514452  27.8359462  51.4019839  35.0876053  28.0206714
  54.5644264  35.3745618  28.6208786  55.1588755  35.1341354  27.9102094
  54.6370847  34.6552749  29.2482322  36.7841419  49.2179229  28.9351950
  36.6495887  48.4579630  28.3689948  36.3673482  49.9420129  28.4680739
  47.9200382  44.4016153  17.9428526  48.6236233  44.6066155  18.5586181
  47.1963031  44.9692915  18.2077609  48.7498193  40.1526014  24.0630796
  48.6933394  40.6094566  23.2238428  49.3026535  39.3916699  23.8853639
  52.5602999  35.9415746  24.8880915  52.3039933  35.5412382  25.7189123
  51.9355867  36.6559540  24.7631054  56.8715336  38.6811819  27.3952207
  56.3114894  38.7505009  28.1683769  56.2658840  38.5052804  26.6751703
  39.9410545  50.1148546  29.1470393  39.8242929  51.0593979  29.0449083
  39.1202992  49.8122108  29.5356192  49.8287080  44.8398682  19.9926986
  50.6632684  44.4079881  19.8104460  49.6671423  44.6680696  20.9203880
  49.4832972  41.3430795  21.3583325  49.4281776  41.1775067  20.4171769
  48.8579027  42.0506828  21.5145515  34.2725487  36.5798860  35.1844747
  34.9184351  36.0697814  35.6731972  34.0642638  37.3167541  35.7588172
  42.7929097  30.8438904  20.9368643  42.7807767  31.7880744  21.0936914
  43.6852519  30.6609050  20.6428105  40.9665059  50.7676808  32.3626321
  41.8692306  50.8000418  32.6792816  40.7402429  49.8377259  32.3772657
  42.7218661  49.5207795  29.0236400  41.7714292  49.5209656  28.9100772
  43.0251148  48.7740529  28.5072435  46.6081217  27.4381681  25.1914580
  45.8413613  26.8840168  25.3371263  47.0191922  27.5103550  26.0528732
  52.9669341  54.0784009  19.3560627  53.2194861  53.5565530  18.5944090
  52.0293900  53.9150154  19.4587311  63.4121051  53.0195020  28.0668349
  64.1446222  52.4494237  28.3006178  62.6560406  52.6316621  28.5074855
  52.6865629  55.9812115  21.5585002  52.5701887  55.3057018  22.2266087
  52.7967889  55.4944489  20.7417155  60.9346471  46.7316594  32.5262958
  60.6029796  47.6012005  32.3024173  60.3392084  46.4152878  33.2056988
  54.6702657  50.4712161  20.2593040  54.8377060  51.3392398  20.6263511
  54.4799826  50.6339443  19.3354329  60.8275134  51.4511680  29.6056308
  59.9192012  51.3827089  29.3115069  60.7762730  51.9283625  30.4338133
  54.6491878  52.9269819  21.2439707  54.5291503  53.3726870  22.0825187
  53.9544467  53.2755137  20.6853245  48.2399283  55.0276211  28.7939364
  48.3691664  55.2810690  29.7078776  47.5596734  55.6203919  28.4744019
  62.6936781  49.6528119  31.3834182  62.0511161  49.9460652  30.7373976
  62.1891709  49.5381039  32.1887378  60.3476944  53.3991292  22.0720041
  61.2594800  53.6318679  21.8967738  59.8386591  53.9828336  21.5095119
  58.6317712  57.8215920  35.7081333  59.0401068  57.3798330  34.9635966
  57.9094973  57.2468547  35.9615526  58.1348227  50.4192895  34.7396064
  57.8909159  51.1734956  34.2030340  58.4108158  50.7978243  35.5743311
  60.0886690  56.9631507  33.4173330  60.3003585  57.6063267  32.7407711
  60.0416438  56.1293824  32.9495260  57.6912919  49.5749328  30.3209902
  56.8297398  49.8730582  30.6126639  57.7175354  49.7919727  29.3890934
  53.4443375  54.2414671  23.5373273  54.1467418  54.6935715  24.0047199
  53.1124003  53.5998490  24.1653166  47.1868708  52.4998224  28.8390406
  46.3967762  52.7555752  28.3630517  47.6779956  53.3146561  28.9442447
  61.2032518  59.8403463  31.5895687  62.0249962  59.4383650  31.3078369
  61.1994921  59.7371697  32.5411803  49.1383454  52.8642803  25.7973883
  48.3414617  52.9761497  26.3157378  48.9109046  53.2029455  24.9314773
  69.2938511  56.1842211  27.9380658  68.5402219  55.6149609  27.7824663
  69.4286052  56.1504876  28.8851293  48.1366537  58.5731052  24.1863303
  48.6491057  59.3674302  24.3368868  48.7889249  57.8757342  24.1196904
  56.3105616  61.6779180  37.7435720  55.8669470  60.8915559  37.4256624
  56.9722829  61.8658331  37.0779611  58.4086854  61.9581980  35.7717121
  58.3905329  62.7790861  35.2797390  59.3306774  61.8336055  35.9967262
  58.0329603  44.5786175  32.1434271  57.6893872  45.4687817  32.0673382
  58.4008565  44.3887833  31.2803856  46.1015453  56.9019706  24.9622873
  46.9390675  57.3116714  24.7456581  46.2793721  55.9619148  24.9323067
  57.9979885  54.5694787  20.6506706  57.4826509  55.3399391  20.8895094
  57.7257194  53.8959923  21.2739768  55.5826996  49.4144487  25.7091945
  54.7268593  49.0251338  25.5297583  55.9953948  49.4936448  24.8491730
  57.1126143  46.9490831  30.1083504  56.6090939  46.9120966  29.2951310
  57.4056750  47.8583573  30.1680161  53.3569029  47.0329560  29.1149686
  54.2222026  46.8372369  28.7555576  53.4246538  46.8039912  30.0419043
  62.9714160  57.3227141  22.5859880  62.1943602  56.9838301  22.1415042
  63.6505641  57.3279764  21.9114845  57.7866189  52.4421879  22.4766487
  57.4816324  52.7568028  23.3276631  58.7396631  52.5203299  22.5193820
  50.9631348  49.2631768  26.4866053  51.5375100  49.0406950  25.7539246
  51.5502331  49.3320463  27.2394654  51.2900935  51.2936229  20.5061938
  50.4538247  51.6310916  20.8271213  51.1505705  51.1585209  19.5689075
  53.2654016  46.1373017  25.2141122  52.6118428  45.8222034  24.5897737
  53.2234490  45.5148758  25.9400945  54.3765221  56.4192312  17.1294414
  53.4692282  56.1881566  17.3285563  54.8736253  55.6229932  17.3168396
  59.7305641  51.0603483  26.6510240  58.9928398  50.5480869  26.9820482
  59.9832415  50.6203864  25.8393516  59.8317268  43.8379735  27.2452009
  60.1376145  42.9777098  26.9577924  60.5569873  44.4297355  27.0451003
  46.1241624  54.2410421  25.6333607  45.9266024  53.6479782  24.9084673
  45.5688288  53.9362631  26.3509546  52.0430708  52.7510587  25.5118579
  51.2298574  53.0504758  25.9183771  52.5389702  52.3566276  26.2293061
  63.3702657  56.3370848  25.0482802  63.2320555  56.5272444  24.1203991
  63.0138875  57.0990231  25.5050853  63.3972036  58.4047375  30.0594073
  63.8308543  58.3122664  30.9077127  64.1103617  58.3804875  29.4214089
  48.6187850  53.7674455  23.3174559  47.6885438  53.7058911  23.5344521
  48.7145322  53.2450408  22.5211200  48.5373399  50.2929268  25.9052801
  48.7980217  51.2074601  25.7961961  49.3590572  49.8253711  26.0549413
  64.2587586  58.4471075  32.5926959  64.4523476  59.3516886  32.8386234
  64.1588204  57.9878495  33.4265544  55.9123897  48.3328966  35.0917286
  55.2651812  49.0318916  34.9981762  56.6824912  48.7665110  35.4593534
  59.3202695  58.5977818  38.1667839  59.1688201  58.3688370  37.2497923
  59.3107374  59.5548420  38.1799184  61.0294901  61.6296941  36.2444321
  60.9707447  60.9456161  35.5774904  61.4314420  62.3715931  35.7924947
  51.1639315  51.1383457  17.7059845  50.2868782  51.0172258  17.3422092
  51.6397068  50.3469535  17.4538734  61.0312308  59.5936525  34.4758301
  60.1439087  59.2562447  34.5984700  61.6010859  58.8619556  34.7127066
  42.6841456  55.9260616  27.8001352  43.3712495  55.6122347  27.2122368
  42.5289584  56.8301981  27.5268604  57.6599892  49.3004377  27.5956571
  58.1568591  48.5474339  27.2757641  56.8886873  49.3368693  27.0299780
  65.5129649  55.0044742  29.2374862  65.5019525  55.8869458  28.8668796
  64.6447028  54.6516293  29.0429400  54.2434860  51.4421760  27.3228256
  53.8732648  50.8892800  28.0109161  54.7393953  50.8379893  26.7703256
  62.1302224  53.8993383  25.7045028  62.5962676  54.7321375  25.6305331
  62.5809724  53.4338365  26.4090287  60.1018886  46.2673970  29.7435930
  59.1881966  46.4978197  29.9118137  60.5311988  46.3512414  30.5949962
  59.8725345  54.4563862  32.2435824  59.2196795  54.7039769  31.5888277
  60.2505725  53.6428000  31.9098301  42.2609432  54.0061210  30.0718819
  42.2993531  53.4724801  30.8655937  41.7549724  53.4796415  29.4529796
  59.5146575  61.3311858  38.8208131  60.0586479  61.9441816  38.3263086
  58.9333420  61.8891436  39.3375144  45.8918009  52.7325312  23.1472751
  46.1871450  51.8235990  23.0939804  44.9906045  52.7113051  22.8253753
  49.4212256  50.8081309  29.1300299  48.6998842  51.4217276  28.9907773
  50.2105512  51.3439073  29.0516945  59.8638996  62.2541596  31.5802709
  58.9169332  62.1346947  31.5081036  60.2121770  61.3664094  31.6628971
  52.2238570  48.1435735  35.4040951  52.7472972  48.3898032  36.1667260
  52.0050903  48.9755770  34.9844088  47.6205851  50.4139410  23.2712076
  47.2918557  49.5336789  23.0887182  47.9745222  50.3587078  24.1588465
  50.7347674  50.7012379  23.6387554  51.0743746  51.2298301  22.9166162
  51.1819794  51.0392786  24.4146120  53.4291115  49.0849430  33.0890622
  53.0887935  48.2857243  33.4911301  52.7230121  49.3851141  32.5167455
  54.0807587  46.1698743  31.5417945  54.9033656  45.6959221  31.4196835
  54.3245650  46.9489226  32.0416631  52.7215821  49.1987001  21.8380846
  53.4424184  49.5768254  21.3344563  52.0981125  49.9175878  21.9415824
  56.8646944  49.9032150  22.7739179  57.0810558  50.7856788  22.4728007
  56.3841011  49.5118363  22.0444821  53.4642548  49.8520411  29.3990813
  53.4504117  48.9561505  29.0623111  54.1814976  49.8591075  30.0329099
  55.3168679  50.2857751  31.4443940  55.0586457  51.2074822  31.4428271
  54.7853719  49.8888186  32.1344404  52.8679444  48.7334791  24.6678383
  52.9895355  47.8051438  24.8669270  52.5781487  48.7473477  23.7556698
  55.7370635  46.4189702  27.8045103  55.7592331  46.4829035  26.8497082
  56.1538694  45.5794211  27.9985609  66.1154259  56.1544961  25.8424325
  66.5585405  55.4052287  25.4443449  65.2380769  56.1455098  25.4598057
  61.2490040  62.7075303  21.3230924  61.9440945  63.3281996  21.5418239
  61.5913190  61.8570654  21.5983302  63.1481463  60.1575008  22.8518255
  63.6732787  60.4962281  22.1267575  63.0603816  59.2222024  22.6681389
  47.3114463  62.4158533  27.2138136  48.1372483  62.1162304  26.8336779
  46.9608515  61.6466155  27.6627925  45.5123068  60.3344859  28.1727070
  44.6754976  59.9067033  27.9911071  45.4846714  60.5277302  29.1097861
  62.8375369  60.7907912  38.1569453  62.0470913  60.7732051  37.6173952
  62.6008724  61.3296206  38.9118489  62.9573244  57.6400378  35.4702181
  63.0071249  57.4750386  36.4117704  62.8487168  56.7727638  35.0800062
  64.4591441  60.0597320  35.7144203  64.1676250  60.4227301  36.5507664
  63.8463573  59.3464328  35.5357535  65.6587124  57.6250200  28.2346773
  66.4934015  58.0640004  28.3984333  65.7946252  57.1488853  27.4155019
  62.7078630  55.1829935  34.1824261  63.1832751  55.3757581  33.3743112
  61.7844195  55.2389120  33.9367644  49.5962136  56.3454102  23.7655339
  49.3508178  55.4416432  23.9635549  49.7658051  56.3471252  22.8234817
  57.2858846  47.2177778  33.1480095  57.8040790  47.9538805  32.8226583
  56.9313979  47.5241771  33.9826854  48.8657784  52.0782459  21.2641500
  48.1727029  52.1526814  20.6081536  48.6209536  51.3142803  21.7863017
  57.5371440  43.6378061  28.6680991  57.8173194  42.9701250  29.2941418
  58.3222047  43.8307156  28.1555655  61.4080299  52.0595695  32.4152566
  62.3597721  52.1593792  32.4364790  61.2383749  51.2673963  32.9250651
  59.4294678  49.1451278  32.6011967  58.8344610  49.4256291  31.9058456
  59.1444375  49.6345179  33.3728708  61.1890185  62.4140075  18.3218547
  61.1103817  62.0799939  19.2154305  62.0099852  62.9061843  18.3210020
  63.8868376  55.2801814  31.5294866  63.8544696  54.3417815  31.7154550
  64.4969000  55.3585851  30.7960691  55.7251707  54.1497867  17.5722070
  56.6710812  54.0204075  17.6410488  55.3465952  53.4112529  18.0491498
  64.0362865  52.0712858  31.5753149  63.5201913  51.2871314  31.3883078
  64.9202813  51.7431574  31.7399669  61.6973592  45.8153873  27.5348962
  61.4998413  45.5068962  28.4192294  62.3073297  46.5415512  27.6646892
  69.7044926  56.3417821  30.6700903  70.4348315  56.0803109  31.2308606
  69.0951872  55.6046543  30.7102971  67.7860223  54.4825684  31.2675354
  67.0593387  54.3481649  30.6591846  67.3707510  54.7902512  32.0732072
  53.9094624  52.0747844  17.5076955  53.0026080  51.7780956  17.5839669
  54.1870605  51.7777662  16.6411241  44.8272565  53.3954207  27.9576002
  44.5075349  52.5419515  27.6650376  44.2805993  53.6102785  28.7133969
  55.5256690  46.6184733  23.6621196  54.7157418  46.2731818  24.0376443
  56.2141107  46.3092277  24.2508808  57.4547238  45.6962780  25.2845493
  58.0078277  46.1158234  25.9435516  57.6917325  44.7698528  25.3268449
  52.6793409  48.9334779  17.6488934  53.5412573  49.2589677  17.9084752
  52.8643753  48.1466275  17.1362000  44.6960825  57.0157119  29.9269123
  44.0024296  56.6011071  29.4139078  45.4433816  57.0577655  29.3302542
  60.8326045  47.8063305  24.7924157  60.2524714  48.4648109  24.4102210
  60.5661978  46.9840650  24.3811575  59.2829612  47.2068363  26.9945478
  59.7829390  47.3184898  26.1859797  59.9265220  46.9029416  27.6346286
  46.6097567  56.9475372  27.8035138  46.5868255  57.0463060  26.8517021
  46.9198204  57.7940523  28.1252304  59.6150923  49.9663396  23.8480506
  58.7276778  50.2513046  23.6300700  60.0304913  49.8057159  23.0007783
  62.9665460  49.9909917  27.5634845  63.7425850  50.4806369  27.8359462
  62.2413594  50.4167971  28.0206714  65.4038018  50.7037536  28.6208786
  65.9982509  50.4633272  27.9102094  65.4764602  49.9844667  29.2482322
  63.3996753  51.2707664  24.8880915  63.1433687  50.8704299  25.7189123
  62.7749621  51.9851458  24.7631054  67.7109091  54.0103737  27.3952207
  67.1508649  54.0796926  28.1683769  67.1052594  53.8344722  26.6751703
  53.6322852  46.1730822  20.9368643  53.6201522  47.1172662  21.0936914
  54.5246274  45.9900967  20.6428105  57.4474971  42.7673599  25.1914580
  56.6807367  42.2132085  25.3371263  57.8585676  42.8395467  26.0528732
  69.2965109  70.6860251  30.0882162  69.9343519  70.5666998  29.3845503
  69.1785952  71.6341095  30.1470115  67.5441190  76.1594123  21.3255043
  66.8929170  76.7448203  20.9389057  68.3385553  76.6900318  21.3850080
  61.4696817  73.2483260  21.7242177  62.2427693  72.7012247  21.5855053
  61.8222216  74.1127510  21.9356639  63.8063095  69.4075926  19.3560627
  64.0588616  68.8857448  18.5944090  62.8687654  69.2442072  19.4587311
  68.8506378  68.4111705  27.1635370  69.6369467  67.9931128  26.8125787
  69.1145082  69.3157797  27.3317019  69.0216455  73.8484555  21.8624027
  68.3862288  73.9219181  22.5744932  68.6913862  74.4378154  21.1843107
  74.2514805  68.3486938  28.0668349  74.9839977  67.7786155  28.3006178
  73.4954161  67.9608538  28.5074855  63.5259384  71.3104032  21.5585002
  63.4095642  70.6348936  22.2266087  63.6361644  70.8236406  20.7417155
  65.8690925  70.7714179  25.2631691  65.5049132  70.2444800  25.9744613
  66.7258041  70.3812648  25.0898177  71.7740225  62.0608512  32.5262958
  71.4423550  62.9303923  32.3024173  71.1785839  61.7444796  33.2056988
  65.5096412  65.8004079  20.2593040  65.6770814  66.6684315  20.6263511
  65.3193581  65.9631361  19.3354329  71.6668889  66.7803598  29.6056308
  70.7585766  66.7119007  29.3115069  71.6156485  67.2575543  30.4338133
  65.4885633  68.2561737  21.2439707  65.3685258  68.7018787  22.0825187
  64.7938221  68.6047054  20.6853245  73.5330535  64.9820037  31.3834182
  72.8904915  65.2752570  30.7373976  73.0285464  64.8672957  32.1887378
  71.1870699  68.7283210  22.0720041  72.0988555  68.9610596  21.8967738
  70.6780346  69.3120254  21.5095119  69.4711466  73.1507838  35.7081333
  69.8794822  72.7090248  34.9635966  68.7488728  72.5760465  35.9615526
  73.6729513  74.6463466  26.8177986  72.9880551  75.0262367  26.2675019
  73.7573362  75.2558793  27.5509934  68.9741982  65.7484813  34.7396064
  68.7302914  66.5026873  34.2030340  69.2501912  66.1270160  35.5743311
  70.9280445  72.2923425  33.4173330  71.1397340  72.9355185  32.7407711
  70.8810193  71.4585742  32.9495260  68.5306674  64.9041246  30.3209902
  67.6691153  65.2022499  30.6126639  68.5569108  65.1211645  29.3890934
  64.2837129  69.5706589  23.5373273  64.9861172  70.0227632  24.0047199
  63.9517758  68.9290408  24.1653166  72.0426273  75.1695380  31.5895687
  72.8643716  74.7675568  31.3078369  72.0388675  75.0663615  32.5411803
  80.1332266  71.5134129  27.9380658  79.3795974  70.9441527  27.7824663
  80.2679807  71.4796793  28.8851293  65.5230894  76.3847531  23.6135378
  65.3876568  77.2299067  24.0420226  66.0640706  76.5866809  22.8501312
  64.9266194  63.8796990  37.8669990  65.6675908  64.4804143  37.7874452
  65.1584117  63.1374628  37.3088032  68.8723357  59.9078093  32.1434271
  68.5287627  60.7979735  32.0673382  69.2402320  59.7179751  31.2803856
  68.8373640  69.8986704  20.6506706  68.3220263  70.6691309  20.8895094
  68.5650948  69.2251840  21.2739768  66.4220751  64.7436405  25.7091945
  65.5662347  64.3543255  25.5297583  66.8347703  64.8228366  24.8491730
  67.9519898  62.2782748  30.1083504  67.4484693  62.2412883  29.2951310
  68.2450504  63.1875491  30.1680161  64.1962783  62.3621478  29.1149686
  65.0615780  62.1664287  28.7555576  64.2640292  62.1331830  30.0419043
  73.8107914  72.6519059  22.5859880  73.0337357  72.3130218  22.1415042
  74.4899395  72.6571682  21.9114845  68.6259943  67.7713796  22.4766487
  68.3210079  68.0859946  23.3276631  69.5790385  67.8495216  22.5193820
  67.0706375  73.9304020  24.1259441  66.5427737  73.1956779  23.8132679
  66.5693878  74.7078696  23.8799410  72.0499221  72.1253040  29.2426488
  71.3922895  72.8152302  29.3306616  72.8539620  72.5149472  29.5860474
  61.8025103  64.5923686  26.4866053  62.3768854  64.3698867  25.7539246
  62.3896085  64.6612380  27.2394654  70.8604680  70.4797413  27.2930430
  71.3736562  71.1127405  27.7952139  71.5105904  69.8798608  26.9273790
  62.1294690  66.6228147  20.5061938  61.2932002  66.9602834  20.8271213
  61.9899459  66.4877127  19.5689075  64.1047770  61.4664935  25.2141122
  63.4512183  61.1513952  24.5897737  64.0628244  60.8440675  25.9400945
  65.2158975  71.7484230  17.1294414  64.3086037  71.5173483  17.3285563
  65.7130007  70.9521849  17.3168396  68.1227054  80.4581737  20.0491101
  67.4488753  80.7613434  20.6576058  68.5092876  81.2610817  19.6996558
  67.3385511  67.9546868  29.5388770  66.4208072  68.1761815  29.3810458
  67.7545654  68.0293179  28.6800477  68.1220558  69.3538284  24.6691450
  68.8692377  69.8659681  24.3598572  68.3912148  69.0322337  25.5295844
  66.3947209  71.8496825  21.6518405  65.4858428  71.5655858  21.7490874
  66.4242292  72.2695903  20.7921711  71.6266476  75.4603414  25.4209572
  71.1728803  74.6194324  25.4774763  70.9960443  76.0964813  25.7584352
  70.5699396  66.3895400  26.6510240  69.8322152  65.8772787  26.9820482
  70.8226169  65.9495782  25.8393516  70.0699415  77.2979911  26.3559390
  70.3622390  77.8584968  25.6371756  70.5798036  77.5908472  27.1112549
  70.6711023  59.1671652  27.2452009  70.9769900  58.3069016  26.9577924
  71.3963628  59.7589273  27.0451003  64.9432103  69.4625445  27.7528200
  64.9980712  68.5099282  27.6770677  64.1323305  69.6184884  28.2369498
  66.0923296  73.3905568  18.9906483  65.6542726  72.6741427  18.5312121
  66.8333737  73.6181683  18.4291575  62.8824463  68.0802505  25.5118579
  62.0692328  68.3796676  25.9183771  63.3783457  67.6858194  26.2293061
  68.4798674  68.5444330  34.3433473  68.8348062  68.7715803  35.2027938
  69.1270805  68.8762706  33.7210728  74.2096411  71.6662766  25.0482802
  74.0714310  71.8564361  24.1203991  73.8532630  72.4282148  25.5050853
  74.2365791  73.7339293  30.0594073  74.6702297  73.6414582  30.9077127
  74.9497371  73.7096793  29.4214089  75.0981340  73.7762993  32.5926959
  75.2917230  74.6808804  32.8386234  74.9981958  73.3170412  33.4265544
  66.7517651  63.6620884  35.0917286  66.1045566  64.3610833  34.9981762
  67.5218666  64.0957028  35.4593534  66.3218269  80.6261410  22.2638180
  66.4970025  80.1549453  23.0783803  65.6351057  81.2527176  22.4919441
  70.2134524  72.2489950  18.5838541  69.5963695  71.5236778  18.4871593
  69.7451012  73.0099310  18.2405615  71.8688656  76.9588858  36.2444321
  71.8101202  76.2748079  35.5774904  72.2708174  77.7007848  35.7924947
  62.0033070  66.4675374  17.7059845  61.1262536  66.3464175  17.3422092
  62.4790823  65.6761453  17.4538734  71.8706063  74.9228442  34.4758301
  70.9832842  74.5854364  34.5984700  72.4404614  74.1911474  34.7127066
  68.4993646  64.6296294  27.5956571  68.9962346  63.8766257  27.2757641
  67.7280628  64.6660611  27.0299780  76.3523403  70.3336660  29.2374862
  76.3413280  71.2161375  28.8668796  75.4840783  69.9808211  29.0429400
  69.5823427  73.3867981  25.1694994  68.6479705  73.5069444  24.9999699
  69.7600095  72.4840448  24.9055004  65.0828615  66.7713677  27.3228256
  64.7126402  66.2184718  28.0109161  65.5787707  66.1671811  26.7703256
  72.9695978  69.2285301  25.7045028  73.4356430  70.0613292  25.6305331
  73.4203479  68.7630282  26.4090287  71.0372209  75.5729122  22.7031181
  71.3132053  75.4585717  23.6125055  70.1676708  75.1746607  22.6643354
  70.9412641  61.5965888  29.7435930  70.0275721  61.8270115  29.9118137
  71.3705742  61.6804332  30.5949962  70.7119099  69.7855780  32.2435824
  70.0590550  70.0331687  31.5888277  71.0899479  68.9719918  31.9098301
  68.0068439  78.7483658  23.6079043  68.5356205  78.2376113  22.9949205
  68.2696658  78.4326188  24.4724576  60.4793948  64.1817668  33.5681362
  60.5435275  65.0432499  33.1558759  60.4161069  63.5691670  32.8353720
  60.2606011  66.1373226  29.1300299  59.5392596  66.7509194  28.9907773
  61.0499267  66.6730991  29.0516945  70.7032751  77.5833514  31.5802709
  69.7563086  77.4638865  31.5081036  71.0515524  76.6956012  31.6628971
  63.0632324  63.4727653  35.4040951  63.5866726  63.7189949  36.1667260
  62.8444658  64.3047688  34.9844088  61.5741428  66.0304297  23.6387554
  61.9137501  66.5590218  22.9166162  62.0213549  66.3684703  24.4146120
  71.3113306  78.2014789  28.8671934  72.2359854  77.9957650  28.7296385
  71.1428609  77.9531190  29.7761276  64.2684869  64.4141348  33.0890622
  63.9281690  63.6149161  33.4911301  63.5623876  64.7143059  32.5167455
  64.9201341  61.4990660  31.5417945  65.7427410  61.0251138  31.4196835
  65.1639405  62.2781144  32.0416631  63.5609576  64.5278919  21.8380846
  64.2817938  64.9060171  21.3344563  62.9374880  65.2467796  21.9415824
  67.7040699  65.2324068  22.7739179  67.9204313  66.1148706  22.4728007
  67.2234766  64.8410281  22.0444821  64.3036303  65.1812329  29.3990813
  64.2897872  64.2853422  29.0623111  65.0208731  65.1882993  30.0329099
  66.1562433  65.6149669  31.4443940  65.8980211  66.5366740  31.4428271
  65.6247474  65.2180104  32.1344404  71.1008622  78.7200456  24.2234026
  71.2745500  78.1546879  23.4707878  71.5937513  79.5201351  24.0413516
  63.7073199  64.0626709  24.6678383  63.8289110  63.1343355  24.8669270
  63.4175241  64.0765395  23.7556698  66.5764389  61.7481620  27.8045103
  66.5986086  61.8120953  26.8497082  66.9932448  60.9086128  27.9985609
  76.9548013  71.4836879  25.8424325  77.3979159  70.7344204  25.4443449
  76.0774524  71.4747016  25.4598057  72.0883795  78.0367221  21.3230924
  72.7834699  78.6573913  21.5418239  72.4306945  77.1862572  21.5983302
  73.9875218  75.4866926  22.8518255  74.5126542  75.8254199  22.1267575
  73.8997570  74.5513941  22.6681389  73.6769124  76.1199830  38.1569453
  72.8864668  76.1023969  37.6173952  73.4402478  76.6588123  38.9118489
  73.7966999  72.9692296  35.4702181  73.8465004  72.8042304  36.4117704
  73.6880922  72.1019555  35.0800062  62.6803258  75.6480842  22.7594270
  62.8291378  76.3316306  22.1060943  63.4869701  75.6285932  23.2743726
  71.0870761  68.9523224  36.7861488  71.9880624  68.8129689  36.4945486
  71.1618736  69.1177679  37.7259665  65.4213567  66.3290079  35.6314674
  64.5516876  66.6223645  35.3597263  65.6573047  66.9130524  36.3521938
  75.2985196  75.3889238  35.7144203  75.0070004  75.7519218  36.5507664
  74.6857327  74.6756246  35.5357535  76.4980878  72.9542117  28.2346773
  77.3327769  73.3931922  28.3984333  76.6340007  72.4780771  27.4155019
  73.5472384  70.5121852  34.1824261  74.0226506  70.7049499  33.3743112
  72.6237949  70.5681038  33.9367644  60.4355891  71.6746019  23.7655339
  60.1901933  70.7708349  23.9635549  60.6051805  71.6763170  22.8234817
  68.1252601  62.5469696  33.1480095  68.6434544  63.2830723  32.8226583
  67.7707733  62.8533689  33.9826854  59.7051538  67.4074377  21.2641500
  59.0120783  67.4818732  20.6081536  59.4603290  66.6434721  21.7863017
  68.3765195  58.9669978  28.6680991  68.6566948  58.2993167  29.2941418
  69.1615802  59.1599074  28.1555655  66.1798663  78.1428972  20.2306017
  65.6072630  78.7619159  19.7776489  66.7531457  78.6928334  20.7645939
  72.2474053  67.3887612  32.4152566  73.1991476  67.4885710  32.4364790
  72.0777503  66.5965881  32.9250651  70.2688433  64.4743196  32.6011967
  69.6738365  64.7548208  31.9058456  69.9838129  64.9637097  33.3728708
  69.3995923  78.4266122  21.3614600  70.3326596  78.3611684  21.5647475
  69.3119136  79.2622389  20.9029132  72.0283940  77.7431993  18.3218547
  71.9497571  77.4091856  19.2154305  72.8493606  78.2353761  18.3210020
  74.7262131  70.6093732  31.5294866  74.6938451  69.6709733  31.7154550
  75.3362754  70.6877769  30.7960691  66.5645462  69.4789785  17.5722070
  67.5104566  69.3495993  17.6410488  66.1859707  68.7404447  18.0491498
  74.8756619  67.4004776  31.5753149  74.3595668  66.6163232  31.3883078
  75.7596568  67.0723492  31.7399669  72.5367346  61.1445791  27.5348962
  72.3392167  60.8360879  28.4192294  73.1467052  61.8707430  27.6646892
  80.5438681  71.6709739  30.6700903  81.2742069  71.4095027  31.2308606
  79.9345626  70.9338461  30.7102971  78.6253978  69.8117602  31.2675354
  77.8987141  69.6773566  30.6591846  78.2101265  70.1194430  32.0732072
  64.7488379  67.4039761  17.5076955  63.8419834  67.1072874  17.5839669
  65.0264360  67.1069580  16.6411241  66.3650445  61.9476651  23.6621196
  65.5551173  61.6023736  24.0376443  67.0534861  61.6384195  24.2508808
  68.2940993  61.0254698  25.2845493  68.8472031  61.4450151  25.9435516
  68.5311079  60.0990446  25.3268449  63.5187163  64.2626697  17.6488934
  64.3806327  64.5881595  17.9084752  63.7037508  63.4758193  17.1362000
  71.6719800  63.1355223  24.7924157  71.0918469  63.7940027  24.4102210
  71.4055733  62.3132568  24.3811575  70.1223366  62.5360281  26.9945478
  70.6223145  62.6476815  26.1859797  70.7658974  62.2321334  27.6346286
  70.4544678  65.2955314  23.8480506  69.5670533  65.5804964  23.6300700
  70.8698667  65.1349077  23.0007783  73.8059214  65.3201834  27.5634845
  74.5819604  65.8098287  27.8359462  73.0807348  65.7459889  28.0206714
  76.2431773  66.0329454  28.6208786  76.8376264  65.7925190  27.9102094
  76.3158356  65.3136584  29.2482322  69.5987891  75.0599988  17.9428526
  70.3023742  75.2649991  18.5586181  68.8750540  75.6276750  18.2077609
  70.4285702  70.8109849  24.0630796  70.3720903  71.2678401  23.2238428
  70.9814044  70.0500534  23.8853639  74.2390508  66.5999581  24.8880915
  73.9827442  66.1996217  25.7189123  73.6143376  67.3143375  24.7631054
  78.5502845  69.3395655  27.3952207  77.9902403  69.4088844  28.1683769
  77.9446349  69.1636639  26.6751703  71.5074589  75.4982517  19.9926986
  72.3420193  75.0663716  19.8104460  71.3458932  75.3264531  20.9203880
  71.1620481  72.0014631  21.3583325  71.1069285  71.8358902  20.4171769
  70.5366536  72.7090664  21.5145515  64.4716606  61.5022740  20.9368643
  64.4595276  62.4464580  21.0936914  65.3640028  61.3192885  20.6428105
  68.2868726  58.0965516  25.1914580  67.5201122  57.5424003  25.3371263
  68.6979431  58.1687385  26.0528732  80.1358864  86.0152168  30.0882162
  80.7737274  85.8958916  29.3845503  80.0179707  86.9633012  30.1470115
  76.9448570  85.9679597  30.0243687  76.6067082  85.8520661  29.1364222
  77.8138338  85.5670762  30.0044693  72.8035386  87.8215073  26.0140578
  72.2400251  87.7305010  25.2456866  72.6887781  87.0014977  26.4943071
  77.4268353  87.1214448  35.9829893  77.4156994  86.7267247  35.1110396
  77.5888993  86.3880521  36.5763664  70.3499818  89.3166265  28.8524799
  71.1421110  88.9757089  28.4371098  70.5896468  89.4261240  29.7726952
  78.3834945  91.4886041  21.3255043  77.7322924  92.0740121  20.9389057
  79.1779307  92.0192236  21.3850080  72.3090572  88.5775178  21.7242177
  73.0821448  88.0304165  21.5855053  72.6615971  89.4419427  21.9356639
  74.1475614  89.9051560  34.9309077  73.8565480  90.8097191  34.8155743
  74.7832599  89.9468088  35.6453146  75.0731821  87.2828409  31.5210436
  75.6695393  87.0584431  30.8067399  75.1306793  86.5413154  32.1235884
  74.6456850  84.7367844  19.3560627  74.8982370  84.2149365  18.5944090
  73.7081409  84.5733989  19.4587311  79.6900132  83.7403622  27.1635370
  80.4763222  83.3223046  26.8125787  79.9538837  84.6449715  27.3317019
  79.8610210  89.1776473  21.8624027  79.2256043  89.2511099  22.5744932
  79.5307616  89.7670071  21.1843107  85.0908560  83.6778856  28.0668349
  85.8233731  83.1078072  28.3006178  84.3347915  83.2900456  28.5074855
  74.3653138  86.6395950  21.5585002  74.2489396  85.9640853  22.2266087
  74.4755398  86.1528324  20.7417155  76.7084679  86.1006097  25.2631691
  76.3442886  85.5736718  25.9744613  77.5651795  85.7104566  25.0898177
  82.6133980  77.3900430  32.5262958  82.2817305  78.2595841  32.3024173
  82.0179593  77.0736714  33.2056988  76.3490166  81.1295997  20.2593040
  76.5164569  81.9976233  20.6263511  76.1587335  81.2923278  19.3354329
  79.1065499  89.5912976  31.9258870  78.8066223  90.4938014  31.8174678
  78.7616559  89.3245159  32.7780023  72.5577981  86.0426772  27.9595575
  71.6328477  85.9102987  28.1673267  72.8062394  86.8220992  28.4565517
  82.5062643  82.1095516  29.6056308  81.5979521  82.0410924  29.3115069
  82.4550239  82.5867461  30.4338133  76.3279387  83.5853654  21.2439707
  76.2079012  84.0310705  22.0825187  75.6331975  83.9338972  20.6853245
  69.9186792  85.6860046  28.7939364  70.0479173  85.9394525  29.7078776
  69.2384243  86.2787754  28.4744019  74.0886279  96.3557296  24.8929838
  74.0110309  97.3065121  24.9718319  73.4847923  96.0103168  25.5504764
  76.5803509  83.5285161  37.5491205  75.8036843  84.0879082  37.5394070
  77.2194072  84.0141944  38.0706075  84.3724290  80.3111954  31.3834182
  83.7298670  80.6044487  30.7373976  83.8679218  80.1964875  32.1887378
  82.0264453  84.0575127  22.0720041  82.9382309  84.2902514  21.8967738
  81.5174100  84.6412172  21.5095119  74.8349881  86.3370615  37.1109172
  75.5764566  86.8755659  36.8343996  74.1286867  86.9636904  37.2680724
  80.3105221  88.4799755  35.7081333  80.7188577  88.0382166  34.9635966
  79.5882482  87.9052383  35.9615526  76.6636291  83.4172362  33.0814890
  77.5097486  83.8411776  33.2249539  76.6034929  82.7605986  33.7753453
  80.6334036  89.0400946  29.4633622  80.0042898  89.2046660  28.7609690
  80.2459698  89.4542555  30.2344586  84.5123267  89.9755384  26.8177986
  83.8274306  90.3554285  26.2675019  84.5967117  90.5850710  27.5509934
  79.8135736  81.0776730  34.7396064  79.5696668  81.8318791  34.2030340
  80.0895667  81.4562078  35.5743311  81.7674199  87.6215343  33.4173330
  81.9791094  88.2647103  32.7407711  81.7203947  86.7877659  32.9495260
  79.3700428  80.2333163  30.3209902  78.5084907  80.5314417  30.6126639
  79.3962863  80.4503562  29.3890934  76.1861997  88.7775354  26.7283707
  76.6500343  89.0563057  25.9388330  75.9218796  87.8758799  26.5456798
  73.0786079  88.3246835  29.6663471  73.6487436  88.7534104  29.0280955
  73.6694190  88.0429420  30.3647656  75.1230884  84.8998506  23.5373273
  75.8254927  85.3519550  24.0047199  74.7911512  84.2582325  24.1653166
  73.5711245  83.4910263  37.9124482  72.9409906  84.1726544  38.1459879
  73.4647333  83.3793345  36.9677620  68.8656217  83.1582059  28.8390406
  68.0755271  83.4139588  28.3630517  69.3567465  83.9730397  28.9442447
  82.8820027  90.4987298  31.5895687  83.7037471  90.0967485  31.3078369
  82.8782430  90.3955532  32.5411803  70.8170963  83.5226638  25.7973883
  70.0202126  83.6345332  26.3157378  70.5896555  83.8613290  24.9314773
  76.6476630  90.0471341  33.7456397  76.7121063  90.5091749  34.5814569
  75.9387554  89.4168706  33.8738707  67.1493920  83.4112549  31.2705397
  67.4001959  84.2959559  31.5362973  67.6853469  83.2317151  30.4980489
  90.9726020  86.8426047  27.9380658  90.2189728  86.2733445  27.7824663
  91.1073561  86.8088711  28.8851293  76.3624648  91.7139449  23.6135378
  76.2270323  92.5590985  24.0420226  76.9034461  91.9158727  22.8501312
  69.8154046  89.2314887  24.1863303  70.3278566  90.0258137  24.3368868
  70.4676758  88.5341177  24.1196904  71.6248930  92.3480643  26.2686056
  71.8015559  93.2698608  26.0807040  72.4205764  92.0339062  26.6980436
  75.7659949  79.2088908  37.8669990  76.5069662  79.8096061  37.7874452
  75.9977872  78.4666546  37.3088032  70.9101287  84.3945275  36.1448219
  70.7954802  83.4930532  36.4455318  70.0545805  84.6408972  35.7933036
  77.9893125  92.3363015  37.7435720  77.5456979  91.5499394  37.4256624
  78.6510338  92.5242166  37.0779611  72.7480246  93.8658817  32.2696398
  73.2987671  93.7375880  31.4973392  71.9091722  94.1653706  31.9191291
  80.0874363  92.6165815  35.7717121  80.0692838  93.4374696  35.2797390
  81.0094283  92.4919891  35.9967262  76.5447417  90.1309945  36.6140629
  77.0775754  89.3698233  36.3839937  76.0161498  89.8383597  37.3564784
  79.7117112  75.2370011  32.1434271  79.3681381  76.1271653  32.0673382
  80.0796074  75.0471668  31.2803856  67.7802962  87.5603541  24.9622873
  68.6178184  87.9700550  24.7456581  67.9581230  86.6202983  24.9323067
  79.6767394  85.2278622  20.6506706  79.1614018  85.9983227  20.8895094
  79.4044703  84.5543758  21.2739768  77.2614505  80.0728323  25.7091945
  76.4056102  79.6835173  25.5297583  77.6741457  80.1520284  24.8491730
  78.7913652  77.6074666  30.1083504  78.2878448  77.5704801  29.2951310
  79.0844259  78.5167409  30.1680161  75.0356538  77.6913396  29.1149686
  75.9009535  77.4956204  28.7555576  75.1034047  77.4623747  30.0419043
  84.6501669  87.9810977  22.5859880  83.8731111  87.6422136  22.1415042
  85.3293150  87.9863600  21.9114845  79.4653698  83.1005714  22.4766487
  79.1603833  83.4151863  23.3276631  80.4184140  83.1787134  22.5193820
  77.9100129  89.2595937  24.1259441  77.3821491  88.5248697  23.8132679
  77.4087632  90.0370614  23.8799410  82.8892975  87.4544958  29.2426488
  82.2316650  88.1444219  29.3306616  83.6933375  87.8441390  29.5860474
  72.6418857  79.9215604  26.4866053  73.2162609  79.6990785  25.7539246
  73.2289839  79.9904298  27.2394654  81.6998434  85.8089331  27.2930430
  82.2130316  86.4419322  27.7952139  82.3499658  85.2090526  26.9273790
  72.9688444  81.9520065  20.5061938  72.1325756  82.2894751  20.8271213
  72.8293214  81.8169044  19.5689075  74.9441525  76.7956853  25.2141122
  74.2905937  76.4805870  24.5897737  74.9021999  76.1732593  25.9400945
  76.0552730  87.0776148  17.1294414  75.1479791  86.8465401  17.3285563
  76.5523762  86.2813767  17.3168396  78.1779265  83.2838786  29.5388770
  77.2601826  83.5053733  29.3810458  78.5939409  83.3585097  28.6800477
  78.9614313  84.6830202  24.6691450  79.7086132  85.1951599  24.3598572
  79.2305902  84.3614254  25.5295844  77.2340963  87.1788742  21.6518405
  76.3252182  86.8947775  21.7490874  77.2636047  87.5987821  20.7921711
  82.4660230  90.7895332  25.4209572  82.0122558  89.9486242  25.4774763
  81.8354197  91.4256730  25.7584352  81.4093150  81.7187318  26.6510240
  80.6715907  81.2064704  26.9820482  81.6619924  81.2787700  25.8393516
  80.9093170  92.6271829  26.3559390  81.2016144  93.1876886  25.6371756
  81.4191790  92.9200390  27.1112549  81.5104777  74.4963570  27.2452009
  81.8163654  73.6360933  26.9577924  82.2357382  75.0881190  27.0451003
  67.8029133  84.8994257  25.6333607  67.6053533  84.3063617  24.9084673
  67.2475797  84.5946467  26.3509546  75.7825857  84.7917363  27.7528200
  75.8374467  83.8391199  27.6770677  74.9717059  84.9476802  28.2369498
  76.9317051  88.7197486  18.9906483  76.4936481  88.0033345  18.5312121
  77.6727492  88.9473601  18.4291575  73.7218217  83.4094423  25.5118579
  72.9086083  83.7088593  25.9183771  74.2177211  83.0150112  26.2293061
  75.8726795  93.4052180  27.4452844  75.8302974  93.6313026  26.5161376
  76.7889494  93.1715554  27.5938645  79.3192429  83.8736247  34.3433473
  79.6741816  84.1007720  35.2027938  79.9664560  84.2054624  33.7210728
  85.0490166  86.9954683  25.0482802  84.9108064  87.1856279  24.1203991
  84.6926384  87.7574066  25.5050853  73.2132292  80.9812778  31.1279814
  73.8531671  80.8401537  30.4302777  72.3809822  80.6947292  30.7518416
  85.0759545  89.0631210  30.0594073  85.5096052  88.9706499  30.9077127
  85.7891126  89.0388711  29.4214089  73.9892596  90.2815209  27.2414806
  74.7833194  89.7865529  27.0397381  73.2784288  89.7533072  26.8782512
  78.8087440  92.6633304  31.5927174  78.8624462  93.2324241  32.3604890
  77.9402222  92.8335189  31.2281211  70.2975359  84.4258291  23.3174559
  69.3672947  84.3642746  23.5344521  70.3932831  83.9034243  22.5211200
  70.2160908  80.9513103  25.9052801  70.4767725  81.8658437  25.7961961
  71.0378081  80.4837546  26.0549413  71.6885834  82.3650861  33.0751625
  72.3608887  82.1568223  32.4264274  70.8615620  82.1672947  32.6356857
  85.9375095  89.1054911  32.5926959  86.1310985  90.0100721  32.8386234
  85.8375713  88.6462330  33.4265544  77.5911406  78.9912801  35.0917286
  76.9439321  79.6902751  34.9981762  78.3612421  79.4248945  35.4593534
  80.9990203  89.2561654  38.1667839  80.8475710  89.0272205  37.2497923
  80.9894883  90.2132255  38.1799184  77.7675540  86.8293566  33.1514106
  78.6967600  86.9804726  32.9783073  77.3466570  86.9177587  32.2962752
  76.5663872  90.8544231  30.9212643  76.4274957  90.4863015  31.7938581
  75.7778468  91.3691870  30.7496601  77.1612024  95.9553327  22.2638180
  77.3363779  95.4841370  23.0783803  76.4744812  96.5819093  22.4919441
  78.1169087  90.2325833  28.3101481  77.7818919  90.1926603  29.2059131
  77.6173033  89.5670549  27.8371891  72.0913331  85.6393463  33.8354062
  71.9533129  84.9073702  34.4365601  73.0018254  85.5502364  33.5538250
  81.0528278  87.5781868  18.5838541  80.4357449  86.8528696  18.4871593
  80.5844767  88.3391228  18.2405615  74.7195631  85.3513423  33.3237742
  75.4295250  84.7106615  33.2824360  74.6764940  85.6026318  34.2463923
  82.7082410  92.2880776  36.2444321  82.6494956  91.6039996  35.5774904
  83.1101929  93.0299766  35.7924947  73.4324565  82.3378641  35.1433381
  72.8961922  81.8869379  35.7954978  72.8441274  82.4724550  34.4003846
  71.7273109  99.1042690  29.0378040  71.9669707  99.7361214  29.7157059
  70.8842305  98.7530730  29.3243399  72.8426824  81.7967292  17.7059845
  71.9656291  81.6756093  17.3422092  73.3184577  81.0053370  17.4538734
  82.7099817  90.2520360  34.4758301  81.8226596  89.9146282  34.5984700
  83.2798368  89.5203391  34.7127066  64.3628965  86.5844452  27.8001352
  65.0500004  86.2706182  27.2122368  64.2077093  87.4885816  27.5268604
  76.2400971  94.9121812  31.4419544  76.1671142  95.7176784  31.9538849
  75.7978364  95.1113778  30.6167565  76.0290750  94.1493582  24.9522366
  75.2458272  94.6915263  25.0460590  76.7283496  94.6667562  25.3516607
  79.3387401  79.9588212  27.5956571  79.8356100  79.2058174  27.2757641
  78.5674382  79.9952529  27.0299780  87.1917158  85.6628577  29.2374862
  87.1807034  86.5453293  28.8668796  86.3234537  85.3100128  29.0429400
  78.6999654  94.8108646  33.5977703  79.4127627  95.4456111  33.5253604
  78.2089683  94.9072512  32.7817705  80.4217181  88.7159899  25.1694994
  79.4873460  88.8361362  24.9999699  80.5993850  87.8132366  24.9055004
  75.9222369  82.1005595  27.3228256  75.5520157  81.5476635  28.0109161
  76.4181462  81.4963728  26.7703256  83.8089733  84.5577218  25.7045028
  84.2750185  85.3905210  25.6305331  84.2597233  84.0922200  26.4090287
  73.7511568  92.5603090  34.4183273  74.4521027  93.1939573  34.5712668
  73.2806683  92.9017821  33.6578913  81.8765964  90.9021040  22.7031181
  82.1525808  90.7877634  23.6125055  81.0070462  90.5038525  22.6643354
  81.7806395  76.9257805  29.7435930  80.8669475  77.1562032  29.9118137
  82.2099497  77.0096249  30.5949962  81.5512854  85.1147697  32.2435824
  80.8984304  85.3623605  31.5888277  81.9293234  84.3011836  31.9098301
  78.5120028  95.1507391  26.3463994  78.6942422  94.3329046  26.8091746
  79.3353014  95.3675083  25.9088884  78.8462193  94.0775576  23.6079043
  79.3749960  93.5668030  22.9949205  79.1090413  93.7618106  24.4724576
  77.6000427  85.8567508  38.7301861  76.9241064  85.7561638  39.4004236
  78.4228061  85.7006722  39.1937858  69.3479286  92.0939445  31.3514376
  69.9332723  91.3483133  31.4842280  69.1504124  92.4043402  32.2351040
  72.2017941  95.1290692  26.3676819  71.5328316  95.6136820  25.8840859
  72.0630811  95.3759913  27.2820197  63.9396941  84.6645045  30.0718819
  63.9781040  84.1308636  30.8655937  63.4337233  84.1380251  29.4529796
  76.3423210  97.1634436  32.9659477  76.8941518  97.3266057  33.7308562
  76.6829403  97.7538874  32.2939502  71.3187703  79.5109586  33.5681362
  71.3829029  80.3724417  33.1558759  71.2554823  78.8983587  32.8353720
  81.1934084  91.9895693  38.8208131  81.7373988  92.6025652  38.3263086
  80.6120929  92.5475272  39.3375144  67.5705518  83.3909147  23.1472751
  67.8658959  82.4819826  23.0939804  66.6693554  83.3696887  22.8253753
  79.4791597  95.1116411  29.9523159  79.3542736  94.3106151  29.4434105
  80.1370688  95.6062605  29.4637129  71.0999765  81.4665144  29.1300299
  70.3786351  82.0801112  28.9907773  71.8893021  82.0022909  29.0516945
  81.5426505  92.9125431  31.5802709  80.5956841  92.7930783  31.5081036
  81.8909278  92.0247930  31.6628971  73.9026079  78.8019570  35.4040951
  74.4260481  79.0481867  36.1667260  73.6838412  79.6339605  34.9844088
  69.2993360  81.0723245  23.2712076  68.9706066  80.1920624  23.0887182
  69.6532731  81.0170914  24.1588465  78.5472939  92.7078148  27.7807061
  78.3997901  91.7794855  27.9614631  79.3726432  92.7298238  27.2964137
  72.4135183  81.3596215  23.6387554  72.7531255  81.8882136  22.9166162
  72.8607303  81.6976621  24.4146120  82.1507061  93.5306706  28.8671934
  83.0753608  93.3249568  28.7296385  81.9822364  93.2823108  29.7761276
  75.1078624  79.7433266  33.0890622  74.7675444  78.9441079  33.4911301
  74.4017630  80.0434976  32.5167455  75.7595096  76.8282578  31.5417945
  76.5821165  76.3543056  31.4196835  76.0033159  77.6073062  32.0416631
  74.4003330  79.8570836  21.8380846  75.1211693  80.2352089  21.3344563
  73.7768634  80.5759713  21.9415824  78.5434453  80.5615985  22.7739179
  78.7598067  81.4440623  22.4728007  78.0628520  80.1702199  22.0444821
  73.2833674  83.5201699  29.3509923  73.1378255  83.8342002  30.2434205
  72.8058878  84.1386599  28.7980822  75.1430057  80.5104247  29.3990813
  75.1291626  79.6145340  29.0623111  75.8602485  80.5174910  30.0329099
  76.9956188  80.9441587  31.4443940  76.7373966  81.8658657  31.4428271
  76.4641228  80.5472021  32.1344404  81.9402377  94.0492374  24.2234026
  82.1139254  93.4838796  23.4707878  82.4331268  94.8493269  24.0413516
  67.7579337  86.0607043  32.2897584  67.2132805  86.8366851  32.4217859
  68.6358686  86.4077847  32.1316706  74.5466953  79.3918627  24.6678383
  74.6682864  78.4635273  24.8669270  74.2568996  79.4057313  23.7556698
  77.4158144  77.0773537  27.8045103  77.4379840  77.1412870  26.8497082
  77.8326203  76.2378046  27.9985609  87.7941768  86.8128797  25.8424325
  88.2372914  86.0636122  25.4443449  86.9168278  86.8038933  25.4598057
  68.5445358  85.1876939  35.1827741  67.8027094  85.3359575  35.7692372
  68.2238103  85.4485205  34.3194491  84.8268972  90.8158844  22.8518255
  85.3520296  91.1546117  22.1267575  84.7391325  89.8805859  22.6681389
  76.4889021  94.7292917  34.9808131  76.7976147  94.4842064  35.8530831
  77.2864503  94.9339556  34.4927002  76.5109633  96.8830827  27.2113508
  76.0714623  96.3907206  27.9046365  77.2617750  96.3403795  26.9705583
  68.9901972  93.0742368  27.2138136  69.8159992  92.7746140  26.8336779
  68.6396024  92.3049990  27.6627925  73.9583505  92.4268836  29.2835810
  73.3363515  91.7639541  28.9838037  74.6288372  92.4529968  28.6009457
  67.1910577  90.9928694  28.1727070  66.3542485  90.5650869  27.9911071
  67.1634223  91.1861138  29.1097861  74.0308033  80.9050624  38.8768316
  74.0796188  81.7812747  38.4946085  74.5730547  80.3628017  38.3039959
  84.5162878  91.4491747  38.1569453  83.7258422  91.4315886  37.6173952
  84.2796233  91.9880041  38.9118489  84.6360753  88.2984214  35.4702181
  84.6858758  88.1334221  36.4117704  84.5274677  87.4311473  35.0800062
  73.5197012  90.9772760  22.7594270  73.6685133  91.6608224  22.1060943
  74.3263456  90.9577850  23.2743726  81.9264516  84.2815142  36.7861488
  82.8274379  84.1421607  36.4945486  82.0012490  84.4469597  37.7259665
  76.2607321  81.6581997  35.6314674  75.3910631  81.9515563  35.3597263
  76.4966802  82.2422442  36.3521938  86.1378950  90.7181155  35.7144203
  85.8463759  91.0811136  36.5507664  85.5251082  90.0048164  35.5357535
  87.3374633  88.2834035  28.2346773  88.1721524  88.7223839  28.3984333
  87.4733761  87.8072688  27.4155019  84.3866139  85.8413770  34.1824261
  84.8620260  86.0341416  33.3743112  83.4631704  85.8972956  33.9367644
  71.2749645  87.0037937  23.7655339  71.0295687  86.1000267  23.9635549
  71.4445560  87.0055088  22.8234817  78.9646355  77.8761614  33.1480095
  79.4828299  78.6122640  32.8226583  78.6101488  78.1825607  33.9826854
  70.5445293  82.7366295  21.2641500  69.8514538  82.8110650  20.6081536
  70.2997045  81.9726638  21.7863017  79.2158949  74.2961896  28.6680991
  79.4960703  73.6285085  29.2941418  80.0009556  74.4890992  28.1555655
  77.0192418  93.4720890  20.2306017  76.4466385  94.0911077  19.7776489
  77.5925211  94.0220252  20.7645939  83.0867808  82.7179530  32.4152566
  84.0385230  82.8177628  32.4364790  82.9171258  81.9257799  32.9250651
  81.1082187  79.8035113  32.6011967  80.5132119  80.0840126  31.9058456
  80.8231884  80.2929014  33.3728708  80.2389677  93.7558040  21.3614600
  81.1720351  93.6903602  21.5647475  80.1512890  94.5914307  20.9029132
  85.5655885  85.9385650  31.5294866  85.5332205  85.0001650  31.7154550
  86.1756509  86.0169686  30.7960691  77.4039216  84.8081703  17.5722070
  78.3498321  84.6787911  17.6410488  77.0253461  84.0696365  18.0491498
  85.7150374  82.7296693  31.5753149  85.1989422  81.9455150  31.3883078
  86.5990322  82.4015410  31.7399669  83.3761101  76.4737709  27.5348962
  83.1785922  76.1652797  28.4192294  83.9860806  77.1999348  27.6646892
  91.3832435  87.0001657  30.6700903  92.1135824  86.7386945  31.2308606
  90.7739381  86.2630379  30.7102971  89.4647732  85.1409519  31.2675354
  88.7380896  85.0065484  30.6591846  89.0495019  85.4486348  32.0732072
  77.2877909  88.8599449  39.0322727  78.2080918  89.0378048  39.2262773
  77.2527492  87.9155494  38.8802426  75.5882133  82.7331679  17.5076955
  74.6813589  82.4364792  17.5839669  75.8658114  82.4361497  16.6411241
  70.2839981  86.7700484  31.6745508  70.5025991  87.7017591  31.6933542
  70.6965755  86.4108458  32.4600312  77.2044199  77.2768569  23.6621196
  76.3944927  76.9315654  24.0376443  77.8928616  76.9676113  24.2508808
  79.1334747  76.3546616  25.2845493  79.6865786  76.7742069  25.9435516
  79.3704834  75.4282364  25.3268449  75.1567847  82.3433689  41.0648257
  75.0564573  83.2928046  40.9960348  74.9389389  82.0151928  40.1924327
  74.3580918  79.5918614  17.6488934  75.2200082  79.9173513  17.9084752
  74.5431262  78.8050110  17.1362000  66.3748334  87.6740954  29.9269123
  65.6811805  87.2594907  29.4139078  67.1221325  87.7161491  29.3302542
  82.5113554  78.4647141  24.7924157  81.9312223  79.1231945  24.4102210
  82.2449487  77.6424485  24.3811575  80.9617121  77.8652199  26.9945478
  81.4616899  77.9768733  26.1859797  81.6052729  77.5613251  27.6346286
  75.0199117  85.7730828  39.8813319  74.5366198  86.5731188  40.0877208
  75.1060056  85.7838773  38.9280763  68.2885076  87.6059208  27.8035138
  68.2655764  87.7046895  26.8517021  68.5985713  88.4524359  28.1252304
  70.9472454  89.6635363  31.9181752  71.9015708  89.6319305  31.8511684
  70.7484978  89.2025987  32.7331978  71.5371836  88.2336479  34.4852550
  72.3564725  88.7280558  34.5087387  71.8108644  87.3168447  34.4570118
  81.2938432  80.6247231  23.8480506  80.4064287  80.9096882  23.6300700
  81.7092422  80.4640995  23.0007783  84.6452969  80.6493752  27.5634845
  85.4213359  81.1390205  27.8359462  83.9201103  81.0751806  28.0206714
  87.0825527  81.3621371  28.6208786  87.6770018  81.1217107  27.9102094
  87.1552111  80.6428502  29.2482322  69.3022683  95.2054982  28.9351950
  69.1677151  94.4455383  28.3689948  68.8854745  95.9295882  28.4680739
  81.2679456  86.1401767  24.0630796  81.2114658  86.5970319  23.2238428
  81.8207799  85.3792452  23.8853639  85.0784262  81.9291499  24.8880915
  84.8221196  81.5288135  25.7189123  84.4537130  82.6435293  24.7631054
  89.3896600  84.6687572  27.3952207  88.8296158  84.7380762  28.1683769
  88.7840103  84.4928557  26.6751703  72.4591809  96.1024299  29.1470393
  72.3424193  97.0469732  29.0449083  71.6384255  95.7997861  29.5356192
  82.3468343  90.8274435  19.9926986  83.1813947  90.3955634  19.8104460
  82.1852686  90.6556449  20.9203880  82.0014236  87.3306548  21.3583325
  81.9463039  87.1650820  20.4171769  81.3760291  88.0382581  21.5145515
  79.3160143  89.6355460  40.6836888  80.1851302  89.8096113  40.3223523
  78.8366894  90.4549877  40.5612617  75.3110361  76.8314657  20.9368643
  75.2989031  77.7756497  21.0936914  76.2033783  76.6484803  20.6428105
  73.4846323  96.7552561  32.3626321  74.3873570  96.7876172  32.6792816
  73.2583693  95.8253012  32.3772657  75.2399925  95.5083548  29.0236400
  74.2895556  95.5085409  28.9100772  75.5432411  94.7616282  28.5072435
  79.1262480  73.4257434  25.1914580  78.3594876  72.8715921  25.3371263
  79.5373185  73.4979303  26.0528732  90.9752618 101.3444086  30.0882162
  91.6131028 101.2250834  29.3845503  90.8573461 102.2924930  30.1470115
  87.7842325 101.2971514  30.0243687  87.4460836 101.1812579  29.1364222
  88.6532093 100.8962679  30.0044693  88.2662108 102.4506366  35.9829893
  88.2550748 102.0559164  35.1110396  88.4282747 101.7172439  36.5763664
  81.1893572 104.6458182  28.8524799  81.9814864 104.3049007  28.4371098
  81.4290222 104.7553157  29.7726952  84.9869369 105.2343478  34.9309077
  84.6959235 106.1389109  34.8155743  85.6226353 105.2760005  35.6453146
  85.9125576 102.6120326  31.5210436  86.5089148 102.3876349  30.8067399
  85.9700547 101.8705072  32.1235884  93.4527734  92.7192347  32.5262958
  93.1211059  93.5887758  32.3024173  92.8573348  92.4028631  33.2056988
  89.9459254 104.9204893  31.9258870  89.6459977 105.8229932  31.8174678
  89.6010313 104.6537077  32.7780023  83.3971735 101.3718690  27.9595575
  82.4722232 101.2394904  28.1673267  83.6456149 102.1512909  28.4565517
  93.3456398  97.4387434  29.6056308  92.4373275  97.3702842  29.3115069
  93.2943993  97.9159378  30.4338133  80.7580546 101.0151964  28.7939364
  80.8872928 101.2686443  29.7078776  80.0777998 101.6079672  28.4744019
  87.4197263  98.8577079  37.5491205  86.6430598  99.4170999  37.5394070
  88.0587827  99.3433862  38.0706075  95.2118044  95.6403872  31.3834182
  94.5692424  95.9336405  30.7373976  94.7072973  95.5256792  32.1887378
  85.6743636 101.6662532  37.1109172  86.4158320 102.2047576  36.8343996
  84.9680621 102.2928821  37.2680724  91.1498975 103.8091673  35.7081333
  91.5582331 103.3674083  34.9635966  90.4276237 103.2344300  35.9615526
  87.5030045  98.7464280  33.0814890  88.3491241  99.1703693  33.2249539
  87.4428683  98.0897904  33.7753453  90.6529491  96.4068648  34.7396064
  90.4090423  97.1610709  34.2030340  90.9289421  96.7853996  35.5743311
  92.6067954 102.9507260  33.4173330  92.8184849 103.5939020  32.7407711
  92.5597702 102.1169577  32.9495260  90.2094183  95.5625081  30.3209902
  89.3478662  95.8606335  30.6126639  90.2356617  95.7795480  29.3890934
  83.9179833 103.6538753  29.6663471  84.4881190 104.0826022  29.0280955
  84.5087945 103.3721338  30.3647656  84.4105000  98.8202181  37.9124482
  83.7803660  99.5018461  38.1459879  84.3041087  98.7085262  36.9677620
  79.7049972  98.4873977  28.8390406  78.9149026  98.7431505  28.3630517
  80.1961219  99.3022315  28.9442447  81.6564717  98.8518556  25.7973883
  80.8595881  98.9637250  26.3157378  81.4290310  99.1905208  24.9314773
  87.4870385 105.3763259  33.7456397  87.5514817 105.8383666  34.5814569
  86.7781309 104.7460624  33.8738707  77.9887675  98.7404467  31.2705397
  78.2395713  99.6251477  31.5362973  78.5247223  98.5609069  30.4980489
  83.6885742  93.1222946  40.2749733  83.2952688  92.5689145  40.9497377
  84.5051883  93.4333525  40.6656250  86.6053703  94.5380826  37.8669990
  87.3463417  95.1387979  37.7874452  86.8371626  93.7958463  37.3088032
  81.7495041  99.7237193  36.1448219  81.6348556  98.8222450  36.4455318
  80.8939559  99.9700890  35.7933036  88.8286879 107.6654933  37.7435720
  88.3850733 106.8791312  37.4256624  89.4904093 107.8534084  37.0779611
  83.5874000 109.1950735  32.2696398  84.1381425 109.0667798  31.4973392
  82.7485476 109.4945624  31.9191291  87.3841171 105.4601863  36.6140629
  87.9169508 104.6990151  36.3839937  86.8555252 105.1675514  37.3564784
  90.5510866  90.5661929  32.1434271  90.2075136  91.4563570  32.0673382
  90.9189829  90.3763586  31.2803856  88.1008260  95.4020240  25.7091945
  87.2449856  95.0127091  25.5297583  88.5135212  95.4812201  24.8491730
  89.6307407  92.9366584  30.1083504  89.1272202  92.8996719  29.2951310
  89.9238013  93.8459326  30.1680161  85.8750292  93.0205313  29.1149686
  86.7403289  92.8248122  28.7555576  85.9427801  92.7915665  30.0419043
  83.4812612  95.2507521  26.4866053  84.0556363  95.0282703  25.7539246
  84.0683594  95.3196216  27.2394654  85.7835279  92.1248770  25.2141122
  85.1299692  91.8097787  24.5897737  85.7415753  91.5024511  25.9400945
  89.0173020  98.6130704  29.5388770  88.0995581  98.8345651  29.3810458
  89.4333163  98.6877014  28.6800477  92.3498532  89.8255488  27.2452009
  92.6557409  88.9652851  26.9577924  93.0751137  90.4173108  27.0451003
  78.6422888 100.2286174  25.6333607  78.4447288  99.6355535  24.9084673
  78.0869552  99.9238384  26.3509546  86.6219612 100.1209281  27.7528200
  86.6768221  99.1683117  27.6770677  85.8110814 100.2768720  28.2369498
  84.5611972  98.7386340  25.5118579  83.7479837  99.0380511  25.9183771
  85.0570966  98.3442029  26.2293061  90.1586183  99.2028165  34.3433473
  90.5135571  99.4299638  35.2027938  90.8058314  99.5346542  33.7210728
  84.0526046  96.3104696  31.1279814  84.6925426  96.1693455  30.4302777
  83.2203577  96.0239209  30.7518416  81.0554663  96.2805021  25.9052801
  81.3161480  97.1950354  25.7961961  81.8771835  95.8129464  26.0549413
  82.5279588  97.6942778  33.0751625  83.2002641  97.4860140  32.4264274
  81.7009375  97.4964864  32.6356857  88.4305160  94.3204719  35.0917286
  87.7833075  95.0194669  34.9981762  89.2006175  94.7540863  35.4593534
  91.8383958 104.5853571  38.1667839  91.6869464 104.3564123  37.2497923
  91.8288637 105.5424173  38.1799184  88.6069294 102.1585484  33.1514106
  89.5361354 102.3096644  32.9783073  88.1860324 102.2469505  32.2962752
  87.4057626 106.1836148  30.9212643  87.2668712 105.8154933  31.7938581
  86.6172222 106.6983788  30.7496601  82.9307085 100.9685381  33.8354062
  82.7926883 100.2365620  34.4365601  83.8412009 100.8794281  33.5538250
  85.5589386 100.6805340  33.3237742  86.2689004 100.0398533  33.2824360
  85.5158694 100.9318235  34.2463923  84.2718320  97.6670558  35.1433381
  83.7355677  97.2161297  35.7954978  83.6835028  97.8016467  34.4003846
  93.5493572 105.5812278  34.4758301  92.6620351 105.2438200  34.5984700
  94.1192123 104.8495309  34.7127066  75.2022719 101.9136369  27.8001352
  75.8893759 101.5998100  27.2122368  75.0470848 102.8177734  27.5268604
  80.0057441  96.8026566  32.2286376  79.9215630  96.1952236  31.4936786
  79.1840148  97.2935584  32.2295872  90.1781155  95.2880130  27.5956571
  90.6749855  94.5350092  27.2757641  89.4068137  95.3244446  27.0299780
  86.7616124  97.4297513  27.3228256  86.3913911  96.8768553  28.0109161
  87.2575216  96.8255646  26.7703256  84.5905322 107.8895008  34.4183273
  85.2914782 108.5231491  34.5712668  84.1200437 108.2309739  33.6578913
  92.6200150  92.2549723  29.7435930  91.7063230  92.4853950  29.9118137
  93.0493251  92.3388167  30.5949962  92.3906608 100.4439615  32.2435824
  91.7378059 100.6915522  31.5888277  92.7686988  99.6303753  31.9098301
  88.4394181 101.1859426  38.7301861  87.7634818 101.0853555  39.4004236
  89.2621815 101.0298640  39.1937858  80.1873040 107.4231363  31.3514376
  80.7726477 106.6775051  31.4842280  79.9897879 107.7335319  32.2351040
  74.7790695  99.9936963  30.0718819  74.8174795  99.4600554  30.8655937
  74.2730988  99.4672168  29.4529796  82.1581457  94.8401503  33.5681362
  82.2222784  95.7016334  33.1558759  82.0948578  94.2275505  32.8353720
  81.6333730  96.9124636  37.2154396  82.2605769  96.5301713  37.8291920
  80.7761649  96.6938838  37.5810088  78.4099273  98.7201065  23.1472751
  78.7052714  97.8111743  23.0939804  77.5087308  98.6988804  22.8253753
  81.9393520  96.7957062  29.1300299  81.2180105  97.4093029  28.9907773
  82.7286775  97.3314826  29.0516945  84.7419833  94.1311488  35.4040951
  85.2654235  94.3773785  36.1667260  84.5232167  94.9631523  34.9844088
  80.1387114  96.4015163  23.2712076  79.8099820  95.5212542  23.0887182
  80.4926485  96.3462831  24.1588465  85.9472378  95.0725183  33.0890622
  85.6069199  94.2732996  33.4911301  85.2411385  95.3726894  32.5167455
  86.5988850  92.1574496  31.5417945  87.4214919  91.6834974  31.4196835
  86.8426914  92.9364979  32.0416631  84.1227429  98.8493616  29.3509923
  83.9772010  99.1633919  30.2434205  83.6452632  99.4678517  28.7980822
  85.9823812  95.8396164  29.3990813  85.9685381  94.9437258  29.0623111
  86.6996240  95.8466828  30.0329099  87.8349942  96.2733504  31.4443940
  87.5767720  97.1950575  31.4428271  87.3034983  95.8763939  32.1344404
  78.5973091 101.3898961  32.2897584  78.0526559 102.1658769  32.4217859
  79.4752441 101.7369765  32.1316706  85.3860708  94.7210545  24.6678383
  85.5076619  93.7927191  24.8669270  85.0962750  94.7349230  23.7556698
  88.2551898  92.4065455  27.8045103  88.2773595  92.4704788  26.8497082
  88.6719957  91.5669964  27.9985609  79.3839113 100.5168857  35.1827741
  78.6420849 100.6651492  35.7692372  79.0631857 100.7777123  34.3194491
  78.0304332 106.3220612  28.1727070  77.1936240 105.8942786  27.9911071
  78.0027977 106.5153055  29.1097861  84.8701787  96.2342542  38.8768316
  84.9189943  97.1104665  38.4946085  85.4124301  95.6919935  38.3039959
  95.4754508 103.6276132  35.4702181  95.5252513 103.4626139  36.4117704
  95.3668431 102.7603391  35.0800062  92.7658270  99.6107060  36.7861488
  93.6668133  99.4713524  36.4945486  92.8406245  99.7761514  37.7259665
  87.1001076  96.9873914  35.6314674  86.2304385  97.2807480  35.3597263
  87.3360556  97.5714359  36.3521938  95.2259893 101.1705688  34.1824261
  95.7014015 101.3633334  33.3743112  94.3025458 101.2264873  33.9367644
  89.8040110  93.2053531  33.1480095  90.3222053  93.9414558  32.8226583
  89.4495242  93.5117525  33.9826854  90.0552704  89.6253814  28.6680991
  90.3354457  88.9577003  29.2941418  90.8403311  89.8182909  28.1555655
  93.9261562  98.0471448  32.4152566  94.8778985  98.1469545  32.4364790
  93.7565012  97.2549716  32.9250651  91.9475941  95.1327031  32.6011967
  91.3525874  95.4132044  31.9058456  91.6625638  95.6220932  33.3728708
  96.5544128  98.0588611  31.5753149  96.0383177  97.2747068  31.3883078
  97.4384077  97.7307327  31.7399669  94.2154855  91.8029626  27.5348962
  94.0179676  91.4944715  28.4192294  94.8254561  92.5291265  27.6646892
  88.1271663 104.1891367  39.0322727  89.0474673 104.3669966  39.2262773
  88.0921246 103.2447412  38.8802426  77.3453828  99.3829960  27.9576002
  77.0256613  98.5295268  27.6650376  76.7987256  99.5978538  28.7133969
  81.1233736 102.0992401  31.6745508  81.3419746 103.0309509  31.6933542
  81.5359510 101.7400376  32.4600312  88.0437954  92.6060487  23.6621196
  87.2338682  92.2607571  24.0376443  88.7322370  92.2968030  24.2508808
  89.9728502  91.6838533  25.2845493  90.5259540  92.1033987  25.9435516
  90.2098588  90.7574281  25.3268449  85.9961601  97.6725607  41.0648257
  85.8958328  98.6219964  40.9960348  85.7783143  97.3443846  40.1924327
  77.2142088 103.0032872  29.9269123  76.5205560 102.5886824  29.4139078
  77.9615079 103.0453408  29.3302542  91.8010875  93.1944116  26.9945478
  92.3010654  93.3060651  26.1859797  92.4446483  92.8905169  27.6346286
  85.8592871 101.1022746  39.8813319  85.3759953 101.9023106  40.0877208
  85.9453810 101.1130691  38.9280763  79.1278831 102.9351125  27.8035138
  79.1049519 103.0338813  26.8517021  79.4379467 103.7816276  28.1252304
  81.7866209 104.9927281  31.9181752  82.7409462 104.9611223  31.8511684
  81.5878732 104.5317904  32.7331978  82.3765591 103.5628397  34.4852550
  83.1958480 104.0572475  34.5087387  82.6502398 102.6460365  34.4570118
  77.6300505  97.8966530  35.1844747  78.2759369  97.3865484  35.6731972
  77.4217656  98.6335212  35.7588172  90.1553897 104.9647378  40.6836888
  91.0245057 105.1388030  40.3223523  89.6760649 105.7841795  40.5612617
  89.9656235  88.7549352  25.1914580  89.1988631  88.2007838  25.3371263
  90.3766940  88.8271220  26.0528732  81.9697996  95.0434147  39.2819761
  82.8329458  94.6870952  39.4923086  81.3963407  94.7048042  39.9695166
  37.8359067   7.6790145  25.5453438  38.3798971   8.2920104  25.0508393
  37.2545912   8.2369724  26.0620451  41.1587862   7.1386199  24.8814759
  40.3683405   7.1210338  24.3419259  40.9221216   7.6774493  25.6363796
  42.7803934   6.4075607  22.4389509  42.4888742   6.7705588  23.2752970
  42.1676065   5.6942616  22.2602841  35.9585126   5.3249912  27.4082194
  36.8276286   5.4990564  27.0468829  35.4791877   6.1444329  27.2857924
  47.6177602  17.0338538  16.8127469  48.2556012  16.9145285  16.1090809
  47.4998445  17.9819382  16.8715421  44.4267308  16.9865966  16.7488994
  44.0885820  16.8707031  15.8609529  45.2957076  16.5857131  16.7290000
  44.9087091  18.1400818  22.7075199  44.8975732  17.7453616  21.8355703
  45.0707730  17.4066891  23.3008971  41.6294352  20.9237930  21.6554383
  41.3384218  21.8283561  21.5401050  42.2651336  20.9654457  22.3698453
  42.5550559  18.3014778  18.2455743  43.1514131  18.0770801  17.5312706
  42.6125531  17.5599524  18.8481191  52.5727297  14.6965225  14.7913656
  53.3052469  14.1264442  15.0251485  51.8166653  14.3086826  15.2320161
  50.0952718   8.4086799  19.2508264  49.7636042   9.2782210  19.0269479
  49.4998331   8.0923083  19.9302295  46.5884237  20.6099345  18.6504177
  46.2884960  21.5124384  18.5419984  46.2435297  20.3431528  19.5025330
  49.9881381  13.1281885  16.3301614  49.0798258  13.0597294  16.0360375
  49.9368977  13.6053830  17.1583440  41.5705017  27.3743666  11.6175145
  41.4929047  28.3251491  11.6963625  40.9666661  27.0289538  12.2750071
  44.0622247  14.5471531  24.2736512  43.2855581  15.1065451  24.2639376
  44.7012810  15.0328314  24.7951382  51.8543027  11.3298324  18.1079488
  51.2117408  11.6230857  17.4619283  51.3497956  11.2151244  18.9132685
  42.3168619  17.3556984  23.8354479  43.0583303  17.8942028  23.5589302
  41.6105605  17.9823273  23.9926030  47.7923959  19.4986125  22.4326640
  48.2007315  19.0568535  21.6881272  47.0701220  18.9238752  22.6860833
  44.1455029  14.4358732  19.8060197  44.9916224  14.8598145  19.9494846
  44.0853666  13.7792356  20.4998760  48.1152773  20.0587315  16.1878929
  47.4861636  20.2233030  15.4854997  47.7278435  20.4728925  16.9589893
  51.9942005  20.9941753  13.5423293  51.3093043  21.3740655  12.9920326
  52.0785855  21.6037080  14.2755240  47.2954474  12.0963100  21.4641371
  47.0515406  12.8505160  20.9275646  47.5714405  12.4748448  22.2988618
  49.2492937  18.6401712  20.1418636  49.4609832  19.2833472  19.4653017
  49.2022685  17.8064029  19.6740566  40.5604816  19.3433205  16.3908777
  41.1306173  19.7720473  15.7526262  41.1512928  19.0615790  17.0892963
  41.0529983  14.5096633  24.6369789  40.4228643  15.1912913  24.8705185
  40.9466071  14.3979714  23.6922927  50.3638765  21.5173668  18.3140994
  51.1856209  21.1153855  18.0323675  50.3601168  21.4141902  19.2657109
  44.1295368  21.0657711  20.4701704  44.1939801  21.5278118  21.3059876
  43.4206292  20.4355076  20.5984014  58.4544758  17.8612416  14.6625965
  57.7008466  17.2919814  14.5069969  58.5892299  17.8275081  15.6096600
  40.3310726   8.8117398  26.9995040  39.9377671   8.2583597  27.6742684
  41.1476866   9.1227977  27.3901557  43.2478687  10.2275277  24.5915296
  43.9888400  10.8282431  24.5119759  43.4796609   9.4852915  24.0333339
  38.3920025  15.4131645  22.8693526  38.2773540  14.5116902  23.1700625
  37.5364542  15.6595341  22.5178342  45.4711862  23.3549385  24.4681026
  45.0275716  22.5685764  24.1501931  46.1329076  23.5428536  23.8024917
  40.2298983  24.8845187  18.9941705  40.7806409  24.7562250  18.2218699
  39.3910459  25.1840076  18.6436598  47.5693100  23.6352185  22.4962428
  47.5511576  24.4561066  22.0042697  48.4913020  23.5106260  22.7212569
  44.0266155  21.1496314  23.3385936  44.5594491  20.3884603  23.1085244
  43.4980236  20.8569966  24.0810091  50.3711713  18.4731327  15.9671794
  49.7135388  19.1630589  16.0551923  51.1752112  18.8627759  16.3105781
  49.1817172  16.8275700  14.0175736  49.6949054  17.4605692  14.5197446
  49.8318396  16.2276896  13.6519096  49.9478968  21.8081702  12.1454879
  49.4941295  20.9672611  12.2020069  49.3172935  22.4443100  12.4829659
  48.3911908  23.6458198  13.0804697  48.6834882  24.2063255  12.3617063
  48.9010528  23.9386759  13.8357856  43.3545533  24.4238549  14.1698150
  43.3121711  24.6499396  13.2406682  44.2708232  24.1901924  14.3183951
  46.8011166  14.8922617  21.0678779  47.1560554  15.1194090  21.9273245
  47.4483298  15.2240994  20.4456035  52.5308903  18.0141053  11.7728108
  52.3926802  18.2042649  10.8449298  52.1745122  18.7760436  12.2296160
  52.5578283  20.0817580  16.7839380  52.9914790  19.9892869  17.6322434
  53.2709864  20.0575080  16.1459396  46.2906178  23.6819674  18.3172480
  46.3443200  24.2510610  19.0850196  45.4220959  23.8521559  17.9526518
  39.1704571  13.3837230  19.7996932  39.8427625  13.1754592  19.1509581
  38.3434358  13.1859316  19.3602164  53.4193833  20.1241280  19.3172265
  53.6129723  21.0287091  19.5631540  53.3194451  19.6648699  20.1510850
  45.0730143  10.0099171  21.8162593  44.4258058  10.7089121  21.7227069
  45.8431159  10.4435315  22.1838841  48.4808941  20.2748023  24.8913146
  48.3294448  20.0458575  23.9743230  48.4713621  21.2318625  24.9044491
  45.2494278  17.8479936  19.8759412  46.1786338  17.9991096  19.7028380
  44.8285308  17.9363957  19.0208059  44.0482609  21.8730600  17.6457950
  43.9093695  21.5049385  18.5183888  43.2597206  22.3878240  17.4741908
  44.6430761  26.9739697   8.9883486  44.8182517  26.5027740   9.8029109
  43.9563549  27.6005463   9.2164747  45.5987825  21.2512203  15.0346788
  45.2637657  21.2112973  15.9304438  45.0991770  20.5856919  14.5617198
  39.5732069  16.6579833  20.5599369  39.4351867  15.9260072  21.1610908
  40.4836992  16.5688733  20.2783557  42.2014369  16.3699792  20.0483049
  42.9113988  15.7292985  20.0069667  42.1583677  16.6212687  20.9709229
  50.1901148  23.3067146  22.9689628  50.1313694  22.6226366  22.3020211
  50.5920666  24.0486136  22.5170254  40.9143303  13.3565010  21.8678688
  40.3780660  12.9055749  22.5200284  40.3260012  13.4910919  21.1249152
  39.2091847  30.1229060  15.7623347  39.4488445  30.7547584  16.4402365
  38.3661043  29.7717100  16.0488706  50.1918555  21.2706730  21.2003607
  49.3045334  20.9332651  21.3230006  50.7617106  20.5389761  21.4372373
  43.7219709  25.9308182  18.1664851  43.6489880  26.7363153  18.6784155
  43.2797102  26.1300148  17.3412872  43.5109488  25.1679952  11.6767672
  42.7277010  25.7101632  11.7705897  44.2102233  25.6853932  12.0761913
  54.6735896  16.6814947  15.9620169  54.6625772  17.5639662  15.5914102
  53.8053275  16.3286498  15.7674706  46.1818392  25.8295016  20.3223009
  46.8946364  26.4642481  20.2498911  45.6908421  25.9258882  19.5063011
  41.2330306  23.5789459  21.1428580  41.9339765  24.2125942  21.2957974
  40.7625421  23.9204191  20.3824219  49.0331592  16.1334067  18.9681130
  48.3803042  16.3809974  18.3133583  49.4111972  15.3198205  18.6343608
  45.9938765  26.1693760  13.0709301  46.1761160  25.3515416  13.5337053
  46.8171751  26.3861452  12.6334191  46.3280931  25.0961945  10.3324349
  46.8568697  24.5854400   9.7194511  46.5909151  24.7804475  11.1969882
  45.0819165  16.8753878  25.4547168  44.4059802  16.7748007  26.1249543
  45.9046799  16.7193092  25.9183165  36.8298024  23.1125815  18.0759683
  37.4151461  22.3669502  18.2087587  36.6322862  23.4229771  18.9596347
  39.6836679  26.1477062  13.0922125  39.0147054  26.6323190  12.6086165
  39.5449549  26.3946282  14.0065504  43.8241948  28.1820805  19.6904784
  44.3760256  28.3452427  20.4553869  44.1648141  28.7725243  19.0184808
  38.2758713  12.6019088  23.9399703  38.9030752  12.2196165  24.5537227
  37.4186632  12.3833290  24.3055395  48.6752822  23.0082063  25.5453438
  49.2192726  23.6212021  25.0508393  48.0939667  23.5661641  26.0620451
  46.9610335  26.1302781  16.6768466  46.8361474  25.3292521  16.1679411
  47.6189426  26.6248974  16.1882436  49.0245243  23.9311801  18.3048016
  48.0775579  23.8117152  18.2326343  49.3728016  23.0434299  18.3874277
  41.3844817   9.8205940  22.1286258  41.9079218  10.0668237  22.8912567
  41.1657150  10.6525975  21.7089395  46.0291676  23.7264517  14.5052368
  45.8816639  22.7981225  14.6859938  46.8545170  23.7484608  14.0209443
  49.6325798  24.5493076  15.5917241  50.5572346  24.3435937  15.4541692
  49.4641102  24.3009477  16.5006582  42.5897362  10.7619635  19.8135928
  42.2494182   9.9627448  20.2156608  41.8836368  11.0621346  19.2412761
  44.4774926  11.9627956  18.1689247  44.2192704  12.8845027  18.1673577
  43.9459966  11.5658391  18.8589711  49.4221115  25.0678743  10.9479332
  49.5957992  24.5025166  10.1953185  49.9150006  25.8679638  10.7658822
  35.2398074  17.0793413  19.0142891  34.6951542  17.8553221  19.1463165
  36.1177424  17.4264217  18.8562012  55.2760506  17.8315166  12.5669632
  55.7191652  17.0822492  12.1688755  54.3987016  17.8225303  12.1843364
  50.4096287  24.3845508   8.0476231  51.1047192  25.0052201   8.2663545
  50.7519437  23.5340859   8.3228608  36.0264096  16.2063309  21.9073048
  35.2845832  16.3545944  22.4937678  35.7056840  16.4671574  21.0439797
  52.3087710  21.8345213   9.5763561  52.8339034  22.1732486   8.8512881
  52.2210063  20.8992229   9.3926696  43.9707759  25.7479287  21.7053438
  44.2794885  25.5028434  22.5776138  44.7683241  25.9525926  21.2172308
  43.9928371  27.9017197  13.9358814  43.5533361  27.4093575  14.6291671
  44.7436488  27.3590164  13.6950890  41.4402243  23.4455206  16.0081116
  40.8182252  22.7825911  15.7083344  42.1107110  23.4716338  15.3254764
  41.5126771  11.9236994  25.6013622  41.5614926  12.7999117  25.2191392
  42.0549285  11.3814387  25.0285265  51.9981616  22.4678117  24.8814759
  51.2077160  22.4502256  24.3419259  51.7614971  23.0066411  25.6363796
  52.1179491  19.3170583  22.1947488  52.1677496  19.1520591  23.1363011
  52.0093415  18.4497842  21.8045369  49.4083254  15.3001511  23.5106794
  50.3093116  15.1607976  23.2190792  49.4831228  15.4655966  24.4504972
  43.7426059  12.6768366  22.3559981  42.8729368  12.9701932  22.0842569
  43.9785539  13.2608811  23.0767244  53.6197688  21.7367525  22.4389509
  53.3282496  22.0997505  23.2752970  53.0069819  21.0234533  22.2602841
  54.8193370  19.3020405  14.9592080  55.6540262  19.7410209  15.1229640
  54.9552499  18.8259058  14.1400325  51.8684876  16.8600140  20.9069567
  52.3438998  17.0527786  20.0988419  50.9450442  16.9159325  20.6612951
  46.4465093   8.8947983  19.8725401  46.9647037   9.6309010  19.5471890
  46.0920226   9.2011976  20.7072160  50.5686545  13.7365900  19.1397873
  51.5203968  13.8363997  19.1610097  50.3989996  12.9444168  19.6495957
  48.5900925  10.8221483  19.3257274  47.9950857  11.1026496  18.6303762
  48.3050621  11.3115384  20.0974015  53.0474623  16.9572019  18.2540173
  53.0150943  16.0188020  18.4399856  53.6575247  17.0356056  17.5205997
  53.1969112  13.7483063  18.2998456  52.6808160  12.9641519  18.1128385
  54.0809060  13.4201779  18.4644975  58.8651173  18.0188026  17.3946209
  59.5954561  17.7573314  17.9553913  58.2558118  17.2816748  17.4348277
  56.9466470  16.1595889  17.9920661  56.2199634  16.0251854  17.3837152
  56.5313757  16.4672717  18.7977379  44.7696646  19.8785818  25.7568034
  45.6899656  20.0564417  25.9508080  44.7346230  18.9341864  25.6047733
  37.7658719  17.7886853  18.3990815  37.9844729  18.7203961  18.4178849
  38.1784493  17.4294827  19.1845619  42.6386584  13.3620059  27.7893564
  42.5383311  14.3114416  27.7205655  42.4208126  13.0338298  26.9169634
  42.5017854  16.7917198  26.6058625  42.0184936  17.5917558  26.8122514
  42.5878793  16.8025143  25.6526069  38.4291192  20.6821732  18.6427059
  39.3834445  20.6505675  18.5756991  38.2303715  20.2212356  19.4577285
  39.0190574  19.2522848  21.2097857  39.8383463  19.7466927  21.2332694
  39.2927382  18.3354817  21.1815424  54.5644265  12.3807741  15.3454092
  55.1588756  12.1403477  14.6347400  54.6370849  11.6614872  15.9727628
  36.7841421  26.2241352  15.6597257  36.6495889  25.4641753  15.0935255
  36.3673483  26.9482252  15.1926046  56.8715338  15.6873942  14.1197513
  56.3114896  15.7567131  14.8929075  56.2658841  15.5114926  13.3997010
  39.9410547  27.1210669  15.8715700  39.8242931  28.0656101  15.7694390
  39.1202993  26.8184230  16.2601499  34.2725488  13.5860982  21.9090054
  34.9184352  13.0759936  22.3977279  34.0642639  14.3229664  22.4833479
  46.7978880  20.6541830  27.4082194  47.6670040  20.8282482  27.0468829
  46.3185632  21.4736247  27.2857924  40.9665061  27.7738931  19.0871628
  41.8692307  27.8062541  19.4038123  40.7402431  26.8439382  19.1017964
  42.7218663  26.5269917  15.7481707  41.7714294  26.5271779  15.6346079
  43.0251149  25.7802652  15.2317741  38.6122979  10.7328599  26.0065068
  39.4754441  10.3765404  26.2168393  38.0388390  10.3942494  26.6940472
  58.4571356  32.3630456  16.8127469  59.0949766  32.2437203  16.1090809
  58.3392199  33.3111300  16.8715421  55.2661062  32.3157884  16.7488994
  54.9279574  32.1998949  15.8609529  56.1350831  31.9149049  16.7290000
  51.1247878  34.1693360  12.7385885  50.5612743  34.0783297  11.9702172
  51.0100273  33.3493265  13.2188377  55.7480845  33.4692736  22.7075199
  55.7369486  33.0745534  21.8355703  55.9101485  32.7358808  23.3008971
  48.6712310  35.6644552  15.5770105  49.4633602  35.3235376  15.1616404
  48.9108960  35.7739527  16.4972258  56.7047437  37.8364328   8.0500350
  56.0535417  38.4218408   7.6634363  57.4991800  38.3670523   8.1095387
  50.6303064  34.9253465   8.4487484  51.4033940  34.3782452   8.3100360
  50.9828463  35.7897714   8.6601945  52.4688107  36.2529847  21.6554383
  52.1777973  37.1575478  21.5401050  53.1045091  36.2946375  22.3698453
  53.3944313  33.6306696  18.2455743  53.9907886  33.4062718  17.5312706
  53.4519285  32.8891441  18.8481191  52.9669342  31.0846131   6.0805934
  53.2194863  30.5627652   5.3189397  52.0293901  30.9212277   6.1832617
  58.0112625  30.0881910  13.8880677  58.7975714  29.6701333  13.5371094
  58.2751329  30.9928002  14.0562325  58.1822702  35.5254760   8.5869334
  57.5468535  35.5989386   9.2990239  57.8520108  36.1148359   7.9088413
  63.4121052  30.0257143  14.7913656  64.1446224  29.4556360  15.0251485
  62.6560408  29.6378743  15.2320161  52.6865631  32.9874237   8.2830309
  52.5701889  32.3119141   8.9511393  52.7967890  32.5006611   7.4662462
  55.0297172  32.4484384  11.9876998  54.6655379  31.9215005  12.6989920
  55.8864287  32.0582853  11.8143483  60.9346472  23.7378717  19.2508264
  60.6029797  24.6074128  19.0269479  60.3392086  23.4215001  19.9302295
  54.6702659  27.4774284   6.9838347  54.8377061  28.3454520   7.3508818
  54.4799828  27.6401566   6.0599636  57.4277992  35.9391263  18.6504177
  57.1278715  36.8416302  18.5419984  57.0829051  35.6723446  19.5025330
  50.8790473  32.3905060  14.6840881  49.9540970  32.2581274  14.8918573
  51.1274886  33.1699279  15.1810824  60.8275135  28.4573803  16.3301614
  59.9192013  28.3889212  16.0360375  60.7762731  28.9345748  17.1583440
  54.6491879  29.9331941   7.9685013  54.5291505  30.3788992   8.8070494
  53.9544468  30.2817259   7.4098552  48.2399284  32.0338333  15.5184670
  48.3691665  32.2872812  16.4324082  47.5596736  32.6266041  15.1989326
  52.4098772  42.7035583  11.6175145  52.3322801  43.6543408  11.6963625
  51.8060415  42.3581456  12.2750071  54.9016001  29.8763449  24.2736512
  54.1249335  30.4357369  24.2639376  55.5406564  30.3620232  24.7951382
  62.6936782  26.6590241  18.1079488  62.0511162  26.9522775  17.4619283
  62.1891710  26.5443162  18.9132685  60.3476946  30.4053415   8.7965347
  61.2594802  30.6380801   8.6213045  59.8386593  30.9890459   8.2340426
  53.1562374  32.6848902  23.8354479  53.8977058  33.2233946  23.5589302
  52.4499359  33.3115191  23.9926030  58.6317713  34.8278042  22.4326640
  59.0401069  34.3860453  21.6881272  57.9094975  34.2530670  22.6860833
  54.9848783  29.7650649  19.8060197  55.8309978  30.1890063  19.9494846
  54.9247421  29.1084274  20.4998760  58.9546528  35.3879233  16.1878929
  58.3255390  35.5524947  15.4854997  58.5672190  35.8020843  16.9589893
  62.8335760  36.3233671  13.5423293  62.1486798  36.7032572  12.9920326
  62.9179609  36.9328998  14.2755240  58.1348229  27.4255018  21.4641371
  57.8909160  28.1797078  20.9275646  58.4108159  27.8040365  22.2988618
  60.0886691  33.9693630  20.1418636  60.3003587  34.6125390  19.4653017
  60.0416440  33.1355947  19.6740566  57.6912920  26.5811451  17.0455208
  56.8297399  26.8792704  17.3371946  57.7175355  26.7981850  16.1136241
  54.5074490  35.1253641  13.4529014  54.9712835  35.4041344  12.6633637
  54.2431288  34.2237086  13.2702105  51.3998571  34.6725123  16.3908777
  51.9699928  35.1012391  15.7526262  51.9906683  34.3907707  17.0892963
  53.4443376  31.2476794  10.2618579  54.1467419  31.6997837  10.7292506
  53.1124004  30.6060612  10.8898472  51.8923737  29.8388550  24.6369789
  51.2622398  30.5204831  24.8705185  51.7859825  29.7271632  23.6922927
  47.1868710  29.5060346  15.5635713  46.3967764  29.7617875  15.0875823
  47.6779957  30.3208684  15.6687753  61.2032519  36.8465585  18.3140994
  62.0249963  36.4445773  18.0323675  61.1994922  36.7433820  19.2657109
  49.1383455  29.8704925  12.5219189  48.3414618  29.9823620  13.0402685
  48.9109047  30.2091578  11.6560080  54.9689123  36.3949629  20.4701704
  55.0333555  36.8570036  21.3059876  54.2600047  35.7646994  20.5984014
  45.4706413  29.7590837  17.9950704  45.7214451  30.6437847  18.2608279
  46.0065961  29.5795438  17.2225795  69.2938512  33.1904334  14.6625965
  68.5402221  32.6211732  14.5069969  69.4286054  33.1566998  15.6096600
  54.6837140  38.0617736  10.3380684  54.5482815  38.9069272  10.7665532
  55.2246953  38.2637014   9.5746618  51.1704480  24.1409316  26.9995040
  50.7771426  23.5875515  27.6742684  51.9870620  24.4519895  27.3901557
  48.1366538  35.5793174  10.9108609  48.6491058  36.3736424  11.0614174
  48.7889251  34.8819465  10.8442211  49.9461423  38.6958931  12.9931363
  50.1228051  39.6176895  12.8052347  50.7418256  38.3817350  13.4225742
  54.0872441  25.5567195  24.5915296  54.8282154  26.1574348  24.5119759
  54.3190364  24.8144833  24.0333339  49.2313779  30.7423562  22.8693526
  49.1167294  29.8408820  23.1700625  48.3758297  30.9887259  22.5178342
  56.3105617  38.6841303  24.4681026  55.8669471  37.8977681  24.1501931
  56.9722830  38.8720453  23.8024917  51.0692738  40.2137104  18.9941705
  51.6200163  40.0854168  18.2218699  50.2304214  40.5131993  18.6436598
  58.4086855  38.9644103  22.4962428  58.3905330  39.7852984  22.0042697
  59.3306775  38.8398178  22.7212569  54.8659909  36.4788232  23.3385936
  55.3988246  35.7176520  23.1085244  54.3373990  36.1861884  24.0810091
  58.0329604  21.5848298  18.8679578  57.6893873  22.4749940  18.7918688
  58.4008567  21.3949956  18.0049163  46.1015455  33.9081829  11.6868180
  46.9390677  34.3178837  11.4701888  46.2793722  32.9681271  11.6568374
  57.9979887  31.5756909   7.3752013  57.4826510  32.3461514   7.6140400
  57.7257195  30.9022045   7.9985074  55.5826998  26.4206610  12.4337251
  54.7268594  26.0313460  12.2542890  55.9953949  26.4998571  11.5737037
  57.1126144  23.9552953  16.8328811  56.6090940  23.9183088  16.0196616
  57.4056751  24.8645696  16.8925468  53.3569030  24.0391683  15.8394993
  54.2222027  23.8434492  15.4800882  53.4246539  23.8102035  16.7664350
  62.9714161  34.3289264   9.3105186  62.1943604  33.9900423   8.8660349
  63.6505642  34.3341887   8.6360151  57.7866190  29.4484001   9.2011794
  57.4816325  29.7630150  10.0521937  58.7396632  29.5265421   9.2439127
  56.2312622  35.6074225  10.8504748  55.7033983  34.8726984  10.5377986
  55.7300124  36.3848901  10.6044716  61.2105468  33.8023245  15.9671794
  60.5529142  34.4922506  16.0551923  62.0145867  34.1919677  16.3105781
  50.9631349  26.2693891  13.2111360  51.5375101  26.0469072  12.4784553
  51.5502332  26.3382585  13.9639961  60.0210927  32.1567618  14.0175736
  60.5342808  32.7897610  14.5197446  60.6712150  31.5568813  13.6519096
  51.2900936  28.2998352   7.2307245  50.4538249  28.6373038   7.5516520
  51.1505706  28.1647332   6.2934382  53.2654017  23.1435140  11.9386429
  52.6118429  22.8284157  11.3143044  53.2234491  22.5210880  12.6646252
  54.3765222  33.4254435   3.8539721  53.4692284  33.1943688   4.0530870
  54.8736254  32.6292054   4.0413703  57.2833301  42.1351942   6.7736407
  56.6095000  42.4383639   7.3821365  57.6699123  42.9381022   6.4241864
  56.4991757  29.6317073  16.2634077  55.5814319  29.8532020  16.1055765
  56.9151901  29.7063384  15.4045784  57.2826805  31.0308489  11.3936757
  58.0298624  31.5429886  11.0843879  57.5518395  30.7092542  12.2541151
  55.5553455  33.5267030   8.3763711  54.6464675  33.2426063   8.4736181
  55.5848539  33.9466108   7.5167018  60.7872723  37.1373619  12.1454879
  60.3335050  36.2964529  12.2020069  60.1566689  37.7735018  12.4829659
  59.7305642  28.0665605  13.3755546  58.9928399  27.5542991  13.7065789
  59.9832416  27.6265987  12.5638823  59.2305662  38.9750116  13.0804697
  59.5228636  39.5355173  12.3617063  59.7404283  39.2678677  13.8357856
  59.8317270  20.8441857  13.9697316  60.1376146  19.9839221  13.6823231
  60.5569874  21.4359477  13.7696309  46.1241626  31.2472544  12.3578913
  45.9266026  30.6541905  11.6329980  45.5688290  30.9424754  13.0754852
  54.1038349  31.1395650  14.4773507  54.1586959  30.1869487  14.4015983
  53.2929551  31.2955089  14.9614805  55.2529543  35.0675773   5.7151790
  54.8148973  34.3511632   5.2557427  55.9939984  35.2951888   5.1536881
  52.0430709  29.7572710  12.2363885  51.2298575  30.0566881  12.6429078
  52.5389703  29.3628399  12.9538368  54.1939287  39.7530467  14.1698150
  54.1515466  39.9791313  13.2406682  55.1101986  39.5193842  14.3183951
  57.6404921  30.2214535  21.0678779  57.9954309  30.4486008  21.9273245
  58.2877052  30.5532911  20.4456035  63.3702658  33.3432970  11.7728108
  63.2320557  33.5334566  10.8449298  63.0138877  34.1052353  12.2296160
  51.5344784  27.3291066  17.8525120  52.1744163  27.1879825  17.1548084
  50.7022315  27.0425579  17.4763722  63.3972038  35.4109497  16.7839380
  63.8308544  35.3184787  17.6322434  64.1103618  35.3866998  16.1459396
  52.3105088  36.6293496  13.9660113  53.1045686  36.1343816  13.7642688
  51.5996780  36.1011359  13.6027818  57.1299932  39.0111592  18.3172480
  57.1836955  39.5802528  19.0850196  56.2614714  39.1813477  17.9526518
  48.6187851  30.7736578  10.0419866  47.6885440  30.7121033  10.2589828
  48.7145323  30.2512531   9.2456507  48.5373400  27.2991391  12.6298107
  48.7980218  28.2136724  12.5207268  49.3590573  26.8315833  12.7794720
  50.0098326  28.7129148  19.7996932  50.6821379  28.5046510  19.1509581
  49.1828112  28.5151234  19.3602164  64.2587587  35.4533198  19.3172265
  64.4523477  36.3579009  19.5631540  64.1588205  34.9940617  20.1510850
  55.9123898  25.3391089  21.8162593  55.2651813  26.0381038  21.7227069
  56.6824913  25.7727233  22.1838841  59.3202696  35.6039941  24.8913146
  59.1688202  35.3750493  23.9743230  59.3107375  36.5610542  24.9044491
  56.0888032  33.1771854  19.8759412  57.0180092  33.3283013  19.7028380
  55.6679062  33.2655874  19.0208059  54.8876364  37.2022518  17.6457950
  54.7487450  36.8341302  18.5183888  54.0990960  37.7170157  17.4741908
  55.4824516  42.3031614   8.9883486  55.6576272  41.8319658   9.8029109
  54.7957304  42.9297381   9.2164747  56.4381579  36.5804121  15.0346788
  56.1031412  36.5404891  15.9304438  55.9385525  35.9148837  14.5617198
  50.4125823  31.9871751  20.5599369  50.2745621  31.2551990  21.1610908
  51.3230747  31.8980651  20.2783557  59.3740771  33.9260155   5.3083847
  58.7569941  33.2006983   5.2116900  58.9057259  34.6869515   4.9650922
  53.0408124  31.6991710  20.0483049  53.7507742  31.0584902  20.0069667
  52.9977432  31.9504605  20.9709229  61.0294902  38.6359063  22.9689628
  60.9707449  37.9518284  22.3020211  61.4314421  39.3778053  22.5170254
  51.7537058  28.6856928  21.8678688  51.2174415  28.2347666  22.5200284
  51.1653766  28.8202837  21.1249152  50.0485601  45.4520977  15.7623347
  50.2882199  46.0839501  16.4402365  49.2054798  45.1009017  16.0488706
  61.0312310  36.5998647  21.2003607  60.1439088  36.2624569  21.3230006
  61.6010861  35.8681679  21.4372373  42.6841457  32.9322739  14.5246659
  43.3712497  32.6184469  13.9367674  42.5289585  33.8364104  14.2513910
  47.4876179  27.8212936  18.9531683  47.4034368  27.2138605  18.2182092
  46.6658885  28.3121954  18.9541179  54.5613463  41.2600100  18.1664851
  54.4883635  42.0655071  18.6784155  54.1190856  41.4592065  17.3412872
  54.3503243  40.4971870  11.6767672  53.5670765  41.0393550  11.7705897
  55.0495988  41.0145849  12.0761913  57.6599893  26.3066499  14.3201878
  58.1568592  25.5536461  14.0002948  56.8886874  26.3430816  13.7545087
  65.5129650  32.0106865  15.9620169  65.5019526  32.8931580  15.5914102
  64.6447030  31.6578416  15.7674706  57.0212147  41.1586934  20.3223009
  57.7340119  41.7934399  20.2498911  56.5302175  41.2550800  19.5063011
  58.7429674  35.0638186  11.8940301  57.8085952  35.1839649  11.7245005
  58.9206342  34.1610653  11.6300311  54.2434862  28.4483882  14.0473562
  53.8732649  27.8954923  14.7354468  54.7393954  27.8442016  13.4948562
  62.1302225  30.9055506  12.4290335  62.5962677  31.7383497  12.3550638
  62.5809725  30.4400487  13.1335594  52.0724060  38.9081377  21.1428580
  52.7733520  39.5417860  21.2957974  51.6019175  39.2496109  20.3824219
  60.1978456  37.2499327   9.4276487  60.4738300  37.1355922  10.3370361
  59.3282955  36.8516812   9.3888660  60.1018888  23.2736093  16.4681236
  59.1881967  23.5040319  16.6363443  60.5311989  23.3574537  17.3195269
  59.8725346  31.4625985  18.9681130  59.2196796  31.7101892  18.3133583
  60.2505726  30.6490123  18.6343608  56.8332520  41.4985678  13.0709301
  57.0154915  40.6807334  13.5337053  57.6565506  41.7153370  12.6334191
  57.1674685  40.4253863  10.3324349  57.6962452  39.9146318   9.7194511
  57.4302905  40.1096393  11.1969882  55.9212919  32.2045796  25.4547168
  55.2453556  32.1039925  26.1249543  56.7440553  32.0485009  25.9183165
  47.6691778  38.4417732  18.0759683  48.2545215  37.6961420  18.2087587
  47.4716617  38.7521689  18.9596347  50.5230433  41.4768980  13.0922125
  49.8540809  41.9615107  12.6086165  50.3843303  41.7238200  14.0065504
  42.2609433  31.0123332  16.7964126  42.2993532  30.4786923  17.5901244
  41.7549726  30.4858538  16.1775103  54.6635702  43.5112723  19.6904784
  55.2154010  43.6744345  20.4553869  55.0041895  44.1017161  19.0184808
  49.6400195  25.8587873  20.2926668  49.7041522  26.7202704  19.8804066
  49.5767315  25.2461875  19.5599027  49.1152468  27.9311005  23.9399703
  49.7424507  27.5488083  24.5537227  48.2580387  27.7125207  24.3055395
  59.5146576  38.3373981  25.5453438  60.0586480  38.9503939  25.0508393
  58.9333421  38.8953559  26.0620451  45.8918011  29.7387435   9.8718057
  46.1871452  28.8298113   9.8185111  44.9906046  29.7175174   9.5499060
  57.8004089  41.4594699  16.6768466  57.6755229  40.6584438  16.1679411
  58.4583180  41.9540892  16.1882436  49.4212258  27.8143431  15.8545606
  48.6998843  28.4279399  15.7153079  50.2105513  28.3501196  15.7762252
  59.8638998  39.2603719  18.3048016  58.9169333  39.1409070  18.2326343
  60.2121771  38.3726217  18.3874277  52.2238571  25.1497858  22.1286258
  52.7472973  25.3960154  22.8912567  52.0050904  25.9817892  21.7089395
  47.6205852  27.4201532   9.9957382  47.2918558  26.5398911   9.8132488
  47.9745223  27.3649201  10.8833772  56.8685431  39.0556435  14.5052368
  56.7210393  38.1273142  14.6859938  57.6938924  39.0776526  14.0209443
  50.7347675  27.7074502  10.3632860  51.0743748  28.2360423   9.6411469
  51.1819796  28.0454908  11.1391427  60.4719553  39.8784994  15.5917241
  61.3966100  39.6727855  15.4541692  60.3034856  39.6301395  16.5006582
  53.4291116  26.0911553  19.8135928  53.0887936  25.2919366  20.2156608
  52.7230122  26.3913264  19.2412761  54.0807588  23.1760865  18.2663251
  54.9033657  22.7021343  18.1442142  54.3245651  23.9551349  18.7661938
  52.7215822  26.2049124   8.5626153  53.4424185  26.5830376   8.0589870
  52.0981127  26.9238000   8.6661131  56.8646945  26.9094273   9.4984485
  57.0810560  27.7918910   9.1973313  56.3841012  26.5180486   8.7690127
  51.6046167  29.8679986  16.0755230  51.4590747  30.1820289  16.9679511
  51.1271370  30.4864886  15.5226129  53.4642550  26.8582534  16.1236119
  53.4504118  25.9623627  15.7868417  54.1814978  26.8653198  16.7574405
  55.3168680  27.2919874  18.1689247  55.0586458  28.2136945  18.1673577
  54.7853721  26.8950309  18.8589711  60.2614869  40.3970661  10.9479332
  60.4351747  39.8317084  10.1953185  60.7543760  41.1971556  10.7658822
  46.0791829  32.4085330  19.0142891  45.5345297  33.1845138  19.1463165
  46.9571179  32.7556135  18.8562012  52.8679445  25.7396914  11.3923690
  52.9895357  24.8113560  11.5914577  52.5781488  25.7535600  10.4802005
  55.7370636  23.4251825  14.5290409  55.7592333  23.4891158  13.5742389
  56.1538695  22.5856333  14.7230916  66.1154260  33.1607084  12.5669632
  66.5585406  32.4114409  12.1688755  65.2380770  33.1517220  12.1843364
  61.2490042  39.7137426   8.0476231  61.9440946  40.3344118   8.2663545
  61.5913192  38.8632777   8.3228608  46.8657851  31.5355226  21.9073048
  46.1239587  31.6837862  22.4937678  46.5450595  31.7963492  21.0439797
  63.1481465  37.1637131   9.5763561  63.6732789  37.5024404   8.8512881
  63.0603817  36.2284146   9.3926696  54.8101513  41.0771205  21.7053438
  55.1188640  40.8320351  22.5776138  55.6076995  41.2817843  21.2172308
  54.8322125  43.2309114  13.9358814  54.3927116  42.7385493  14.6291671
  55.5830242  42.6882082  13.6950890  47.3114464  39.4220655  13.9383443
  48.1372484  39.1224427  13.5582086  46.9608516  38.6528278  14.3873231
  52.2795998  38.7747123  16.0081116  51.6576007  38.1117828  15.7083344
  52.9500864  38.8008255  15.3254764  45.5123069  37.3406982  14.8972376
  44.6754978  36.9129156  14.7156377  45.4846715  37.5339425  15.8343167
  52.3520525  27.2528911  25.6013622  52.4008680  28.1291034  25.2191392
  52.8943039  26.7106305  25.0285265  62.8375371  37.7970035  24.8814759
  62.0470914  37.7794174  24.3419259  62.6008725  38.3358328  25.6363796
  62.9573246  34.6462501  22.1947488  63.0071251  34.4812509  23.1363011
  62.8487169  33.7789760  21.8045369  51.8409504  37.3251047   9.4839577
  51.9897625  38.0086511   8.8306249  52.6475948  37.3056137   9.9989032
  60.2477008  30.6293429  23.5106794  61.1486871  30.4899894  23.2190792
  60.3224983  30.7947884  24.4504972  54.5819813  28.0060284  22.3559981
  53.7123123  28.2993850  22.0842569  54.8179294  28.5900729  23.0767244
  64.4591443  37.0659443  22.4389509  64.1676251  37.4289423  23.2752970
  63.8463574  36.3526451  22.2602841  65.6587125  34.6312322  14.9592080
  66.4934016  35.0702126  15.1229640  65.7946254  34.1550976  14.1400325
  62.7078631  32.1892057  20.9069567  63.1832752  32.3819704  20.0988419
  61.7844196  32.2451243  20.6612951  49.5962137  33.3516224  10.4900646
  49.3508179  32.4478554  10.6880856  49.7658052  33.3533375   9.5480124
  57.2858847  24.2239901  19.8725401  57.8040791  24.9600928  19.5471890
  56.9313980  24.5303894  20.7072160  48.8657785  29.0844582   7.9886807
  48.1727030  29.1588937   7.3326843  48.6209537  28.3204926   8.5108324
  57.5371441  20.6440183  15.3926298  57.8173195  19.9763372  16.0186724
  58.3222048  20.8369279  14.8800962  55.3404910  39.8199177   6.9551324
  54.7678877  40.4389364   6.5021796  55.9137704  40.3698539   7.4891246
  61.4080300  29.0657817  19.1397873  62.3597723  29.1655915  19.1610097
  61.2383750  28.2736086  19.6495957  59.4294679  26.1513401  19.3257274
  58.8344611  26.4318413  18.6303762  59.1444376  26.6407301  20.0974015
  58.5602170  40.1036327   8.0859906  59.4932843  40.0381889   8.2892782
  58.4725383  40.9392594   7.6274439  61.1890186  39.4202198   5.0463854
  61.1103818  39.0862061   5.9399612  62.0099853  39.9123966   5.0455326
  63.8868378  32.2863937  18.2540173  63.8544698  31.3479938  18.4399856
  64.4969001  32.3647974  17.5205997  55.7251708  31.1559990   4.2967377
  56.6710813  31.0266198   4.3655795  55.3465953  30.4174652   4.7736805
  64.0362866  29.0774980  18.2998456  63.5201915  28.2933437  18.1128385
  64.9202815  28.7493697  18.4644975  61.6973593  22.8215996  14.2594268
  61.4998414  22.5131084  15.1437600  62.3073299  23.5477635  14.3892198
  69.7044927  33.3479944  17.3946209  70.4348316  33.0865232  17.9553913
  69.0951873  32.6108666  17.4348277  67.7860225  31.4887806  17.9920661
  67.0593388  31.3543771  17.3837152  67.3707511  31.7964635  18.7977379
  55.6090401  35.2077736  25.7568034  56.5293410  35.3856335  25.9508080
  55.5739984  34.2633781  25.6047733  44.8272566  30.4016330  14.6821308
  44.5075350  29.5481638  14.3895682  44.2805994  30.6164908  15.4379276
  48.6052474  33.1178771  18.3990815  48.8238483  34.0495879  18.4178849
  49.0178247  32.7586745  19.1845619  55.5256691  23.6246856  10.3866503
  54.7157420  23.2793941  10.7621749  56.2141108  23.3154400  10.9754115
  57.4547240  22.7024903  12.0090800  58.0078278  23.1220356  12.6680823
  57.6917326  21.7760651  12.0513756  53.4780339  28.6911977  27.7893564
  53.3777066  29.6406333  27.7205655  53.2601881  28.3630215  26.9169634
  44.6960826  34.0219241  16.6514430  44.0024297  33.6073194  16.1384384
  45.4433817  34.0639778  16.0547849  60.8326047  24.8125428  11.5169464
  60.2524716  25.4710232  11.1347516  60.5661979  23.9902773  11.1056882
  59.2829613  24.2130486  13.7190784  59.7829391  24.3247020  12.9105103
  59.9265221  23.9091539  14.3591593  53.3411609  32.1209115  26.6058625
  52.8578691  32.9209475  26.8122514  53.4272548  32.1317060  25.6526069
  46.6097569  33.9537495  14.5280445  46.5868257  34.0525182  13.5762328
  46.9198205  34.8002646  14.8497611  49.2684946  36.0113650  18.6427059
  50.2228200  35.9797592  18.5756991  49.0697470  35.5504274  19.4577285
  49.8584329  34.5814766  21.2097857  50.6777218  35.0758845  21.2332694
  50.1321136  33.6646734  21.1815424  59.6150925  26.9725518  10.5725812
  58.7276780  27.2575169  10.3546007  60.0304914  26.8119282   9.7253089
  62.9665461  26.9972039  14.2880152  63.7425851  27.4868492  14.5604768
  62.2413595  27.4230094  14.7452021  65.4038019  27.7099659  15.3454092
  65.9982510  27.4695395  14.6347400  65.4764603  26.9906789  15.9727628
  47.6235175  41.5533270  15.6597257  47.4889643  40.7933670  15.0935255
  47.2067237  42.2774169  15.1926046  58.7594138  36.7370193   4.6673832
  59.4629988  36.9420196   5.2831488  58.0356787  37.3046955   4.9322916
  59.5891948  32.4880054  10.7876102  59.5327150  32.9448606   9.9483735
  60.1420291  31.7270739  10.6098945  63.3996754  28.2769786  11.6126222
  63.1433689  27.8766422  12.4434430  62.7749622  28.9913580  11.4876361
  67.7109092  31.0165859  14.1197513  67.1508650  31.0859049  14.8929075
  67.1052596  30.8406844  13.3997010  50.7804301  42.4502587  15.8715700
  50.6636685  43.3948019  15.7694390  49.9596747  42.1476148  16.2601499
  60.6680836  37.1752722   6.7172292  61.5026440  36.7433921   6.5349767
  60.5065179  37.0034736   7.6449187  60.3226728  33.6784836   8.0828632
  60.2675532  33.5129107   7.1417076  59.6972783  34.3860869   8.2390821
  45.1119243  28.9152900  21.9090054  45.7578106  28.4051854  22.3977279
  44.9036394  29.6521582  22.4833479  57.6372635  35.9833747  27.4082194
  58.5063795  36.1574400  27.0468829  57.1579386  36.8028164  27.2857924
  53.6322853  23.1792945   7.6613950  53.6201523  24.1234785   7.8182221
  54.5246275  22.9963090   7.3673411  51.8058815  43.1030848  19.0871628
  52.7086062  43.1354459  19.4038123  51.5796185  42.1731299  19.1017964
  53.5612417  41.8561835  15.7481707  52.6108048  41.8563697  15.6346079
  53.8644903  41.1094570  15.2317741  57.4474973  19.7735721  11.9159887
  56.6807369  19.2194208  12.0616569  57.8585678  19.8457590  12.7774038
  49.4516734  26.0620517  26.0065068  50.3148195  25.7057322  26.2168393
  48.8782144  25.7234412  26.6940472  69.2965111  47.6922373  16.8127469
  69.9343521  47.5729121  16.1090809  69.1785954  48.6403217  16.8715421
  66.1054817  47.6449802  16.7488994  65.7673328  47.5290866  15.8609529
  66.9744585  47.2440967  16.7290000  61.9641633  49.4985278  12.7385885
  61.4006498  49.4075215  11.9702172  61.8494028  48.6785182  13.2188377
  66.5874600  48.7984653  22.7075199  66.5763241  48.4037452  21.8355703
  66.7495239  48.0650726  23.3008971  59.5106065  50.9936470  15.5770105
  60.3027357  50.6527294  15.1616404  59.7502715  51.1031445  16.4972258
  67.5441191  53.1656246   8.0500350  66.8929171  53.7510326   7.6634363
  68.3385554  53.6962441   8.1095387  61.4696819  50.2545383   8.4487484
  62.2427695  49.7074370   8.3100360  61.8222217  51.1189632   8.6601945
  63.3081861  51.5821765  21.6554383  63.0171727  52.4867396  21.5401050
  63.9438845  51.6238293  22.3698453  64.2338068  48.9598614  18.2455743
  64.8301640  48.7354636  17.5312706  64.2913039  48.2183359  18.8481191
  63.8063096  46.4138049   6.0805934  64.0588617  45.8919570   5.3189397
  62.8687655  46.2504194   6.1832617  68.8506379  45.4173827  13.8880677
  69.6369468  44.9993250  13.5371094  69.1145084  46.3219919  14.0562325
  69.0216457  50.8546678   8.5869334  68.3862290  50.9281304   9.2990239
  68.6913863  51.4440276   7.9088413  74.2514806  45.3549060  14.7913656
  74.9839978  44.7848277  15.0251485  73.4954162  44.9670661  15.2320161
  63.5259385  48.3166155   8.2830309  63.4095643  47.6411058   8.9511393
  63.6361645  47.8298529   7.4662462  65.8690926  47.7776302  11.9876998
  65.5049133  47.2506923  12.6989920  66.7258042  47.3874771  11.8143483
  71.7740227  39.0670635  19.2508264  71.4423551  39.9366046  19.0269479
  71.1785840  38.7506919  19.9302295  65.5096413  42.8066202   6.9838347
  65.6770815  43.6746438   7.3508818  65.3193582  42.9693483   6.0599636
  68.2671746  51.2683181  18.6504177  67.9672469  52.1708219  18.5419984
  67.9222806  51.0015364  19.5025330  61.7184228  47.7196977  14.6840881
  60.7934724  47.5873192  14.8918573  61.9668641  48.4991197  15.1810824
  71.6668890  43.7865721  16.3301614  70.7585767  43.7181129  16.0360375
  71.6156486  44.2637666  17.1583440  65.4885634  45.2623859   7.9685013
  65.3685259  45.7080910   8.8070494  64.7938222  45.6109177   7.4098552
  59.0793039  47.3630251  15.5184670  59.2085420  47.6164730  16.4324082
  58.3990490  47.9557959  15.1989326  63.2492526  58.0327501  11.6175145
  63.1716556  58.9835326  11.6963625  62.6454170  57.6873373  12.2750071
  65.7409756  45.2055366  24.2736512  64.9643090  45.7649286  24.2639376
  66.3800319  45.6912149  24.7951382  73.5330536  41.9882159  18.1079488
  72.8904917  42.2814692  17.4619283  73.0285465  41.8735079  18.9132685
  71.1870700  45.7345332   8.7965347  72.0988556  45.9672719   8.6213045
  70.6780347  46.3182377   8.2340426  63.9956128  48.0140820  23.8354479
  64.7370812  48.5525864  23.5589302  63.2893114  48.6407108  23.9926030
  69.4711468  50.1569960  22.4326640  69.8794824  49.7152371  21.6881272
  68.7488729  49.5822588  22.6860833  65.8242538  45.0942567  19.8060197
  66.6703733  45.5181980  19.9494846  65.7641175  44.4376191  20.4998760
  69.7940282  50.7171151  16.1878929  69.1649145  50.8816865  15.4854997
  69.4065944  51.1312760  16.9589893  73.6729514  51.6525589  13.5423293
  72.9880552  52.0324490  12.9920326  73.7573364  52.2620915  14.2755240
  68.9741983  42.7546935  21.4641371  68.7302915  43.5088996  20.9275646
  69.2501914  43.1332283  22.2988618  70.9280446  49.2985548  20.1418636
  71.1397341  49.9417308  19.4653017  70.8810194  48.4647864  19.6740566
  68.5306675  41.9103368  17.0455208  67.6691154  42.2084622  17.3371946
  68.5569109  42.1273767  16.1136241  65.3468244  50.4545559  13.4529014
  65.8106590  50.7333262  12.6633637  65.0825042  49.5529003  13.2702105
  62.2392325  50.0017040  16.3908777  62.8093682  50.4304309  15.7526262
  62.8300437  49.7199625  17.0892963  64.2837130  46.5768711  10.2618579
  64.9861174  47.0289755  10.7292506  63.9517759  45.9352530  10.8898472
  62.7317492  45.1680468  24.6369789  62.1016152  45.8496749  24.8705185
  62.6253580  45.0563549  23.6922927  58.0262464  44.8352264  15.5635713
  57.2361518  45.0909792  15.0875823  58.5173712  45.6500602  15.6687753
  72.0426274  52.1757503  18.3140994  72.8643718  51.7737690  18.0323675
  72.0388677  52.0725737  19.2657109  59.9777210  45.1996843  12.5219189
  59.1808373  45.3115537  13.0402685  59.7502802  45.5383495  11.6560080
  65.8082877  51.7241546  20.4701704  65.8727310  52.1861954  21.3059876
  65.0993801  51.0938911  20.5984014  56.3100167  45.0882754  17.9950704
  56.5608206  45.9729764  18.2608279  56.8459716  44.9087356  17.2225795
  80.1332267  48.5196252  14.6625965  79.3795975  47.9503650  14.5069969
  80.2679808  48.4858916  15.6096600  65.5230895  53.3909654  10.3380684
  65.3876570  54.2361190  10.7665532  66.0640707  53.5928932   9.5746618
  62.0098235  39.4701234  26.9995040  61.6165180  38.9167432  27.6742684
  62.8264375  39.7811812  27.3901557  58.9760292  50.9085092  10.9108609
  59.4884813  51.7028342  11.0614174  59.6283005  50.2111382  10.8442211
  60.7855177  54.0250848  12.9931363  60.9621805  54.9468813  12.8052347
  61.5812011  53.7109267  13.4225742  64.9266196  40.8859113  24.5915296
  65.6675909  41.4866266  24.5119759  65.1584118  40.1436751  24.0333339
  60.0707534  46.0715480  22.8693526  59.9561049  45.1700737  23.1700625
  59.2152051  46.3179177  22.5178342  67.1499371  54.0133220  24.4681026
  66.7063225  53.2269599  24.1501931  67.8116585  54.2012371  23.8024917
  61.9086492  55.5429022  18.9941705  62.4593918  55.4146085  18.2218699
  61.0697968  55.8423911  18.6436598  69.2480609  54.2936020  22.4962428
  69.2299085  55.1144901  22.0042697  70.1700529  54.1690096  22.7212569
  65.7053664  51.8080150  23.3385936  66.2382000  51.0468438  23.1085244
  65.1767745  51.5153802  24.0810091  68.8723358  36.9140216  18.8679578
  68.5287628  37.8041857  18.7918688  69.2402321  36.7241873  18.0049163
  56.9409209  49.2373746  11.6868180  57.7784431  49.6470755  11.4701888
  57.1187477  48.2973188  11.6568374  68.8373641  46.9048827   7.3752013
  68.3220265  47.6753431   7.6140400  68.5650950  46.2313963   7.9985074
  66.4220752  41.7498528  12.4337251  65.5662349  41.3605378  12.2542890
  66.8347704  41.8290488  11.5737037  67.9519899  39.2844871  16.8328811
  67.4484694  39.2475006  16.0196616  68.2450506  40.1937614  16.8925468
  64.1962785  39.3683601  15.8394993  65.0615782  39.1726409  15.4800882
  64.2640294  39.1393952  16.7664350  73.8107915  49.6581182   9.3105186
  73.0337358  49.3192341   8.8660349  74.4899396  49.6633805   8.6360151
  68.6259944  44.7775919   9.2011794  68.3210080  45.0922068  10.0521937
  69.5790386  44.8557339   9.2439127  67.0706376  50.9366142  10.8504748
  66.5427738  50.2018902  10.5377986  66.5693879  51.7140819  10.6044716
  72.0499222  49.1315163  15.9671794  71.3922897  49.8214424  16.0551923
  72.8539621  49.5211595  16.3105781  61.8025104  41.5985809  13.2111360
  62.3768856  41.3760990  12.4784553  62.3896086  41.6674503  13.9639961
  70.8604681  47.4859535  14.0175736  71.3736563  48.1189527  14.5197446
  71.5105905  46.8860731  13.6519096  62.1294691  43.6290270   7.2307245
  61.2932003  43.9664956   7.5516520  61.9899461  43.4939249   6.2934382
  64.1047772  38.4727057  11.9386429  63.4512184  38.1576075  11.3143044
  64.0628246  37.8502798  12.6646252  65.2158976  48.7546353   3.8539721
  64.3086038  48.5235606   4.0530870  65.7130008  47.9583972   4.0413703
  68.1227055  57.4643860   6.7736407  67.4488754  57.7675556   7.3821365
  68.5092877  58.2672940   6.4241864  67.3385512  44.9608991  16.2634077
  66.4208073  45.1823938  16.1055765  67.7545656  45.0355301  15.4045784
  68.1220560  46.3600407  11.3936757  68.8692379  46.8721804  11.0843879
  68.3912149  46.0384459  12.2541151  66.3947210  48.8558947   8.3763711
  65.4858429  48.5717980   8.4736181  66.4242294  49.2758026   7.5167018
  71.6266477  52.4665537  12.1454879  71.1728804  51.6256447  12.2020069
  70.9960444  53.1026935  12.4829659  70.5699397  43.3957523  13.3755546
  69.8322154  42.8834909  13.7065789  70.8226170  42.9557905  12.5638823
  70.0699416  54.3042034  13.0804697  70.3622391  54.8647091  12.3617063
  70.5798037  54.5970595  13.8357856  70.6711024  36.1733775  13.9697316
  70.9769901  35.3131138  13.6823231  71.3963629  36.7651395  13.7696309
  56.9635380  46.5764462  12.3578913  56.7659780  45.9833822  11.6329980
  56.4082044  46.2716672  13.0754852  64.9432104  46.4687568  14.4773507
  64.9980714  45.5161404  14.4015983  64.1323306  46.6247007  14.9614805
  66.0923298  50.3967691   5.7151790  65.6542728  49.6803550   5.2557427
  66.8333738  50.6243806   5.1536881  62.8824464  45.0864628  12.2363885
  62.0692329  45.3858798  12.6429078  63.3783458  44.6920317  12.9538368
  65.0333042  55.0822385  14.1698150  64.9909220  55.3083231  13.2406682
  65.9495741  54.8485759  14.3183951  68.4798675  45.5506452  21.0678779
  68.8348063  45.7777925  21.9273245  69.1270807  45.8824829  20.4456035
  74.2096412  48.6724888  11.7728108  74.0714311  48.8626484  10.8449298
  73.8532631  49.4344271  12.2296160  62.3738539  42.6582983  17.8525120
  63.0137918  42.5171742  17.1548084  61.5416069  42.3717497  17.4763722
  74.2365792  50.7401415  16.7839380  74.6702299  50.6476704  17.6322434
  74.9497373  50.7158916  16.1459396  63.1498842  51.9585414  13.9660113
  63.9439441  51.4635734  13.7642688  62.4390535  51.4303277  13.6027818
  67.9693687  54.3403509  18.3172480  68.0230709  54.9094446  19.0850196
  67.1008468  54.5105394  17.9526518  59.4581606  46.1028495  10.0419866
  58.5279194  46.0412951  10.2589828  59.5539078  45.5804448   9.2456507
  59.3767155  42.6283308  12.6298107  59.6373972  43.5428642  12.5207268
  60.1984327  42.1607751  12.7794720  60.8492080  44.0421065  19.7996932
  61.5215134  43.8338428  19.1509581  60.0221867  43.8443151  19.3602164
  75.0981342  50.7825116  19.3172265  75.2917232  51.6870926  19.5631540
  74.9981960  50.3232535  20.1510850  66.7517652  40.6683006  21.8162593
  66.1045567  41.3672956  21.7227069  67.5218668  41.1019150  22.1838841
  70.1596450  50.9331859  24.8913146  70.0081957  50.7042410  23.9743230
  70.1501130  51.8902460  24.9044491  66.9281787  48.5063771  19.8759412
  67.8573847  48.6574931  19.7028380  66.5072817  48.5947792  19.0208059
  65.7270118  52.5314436  17.6457950  65.5881204  52.1633220  18.5183888
  64.9384715  53.0462075  17.4741908  66.3218270  57.6323532   8.9883486
  66.4970026  57.1611575   9.8029109  65.6351058  58.2589298   9.2164747
  67.2775334  51.9096038  15.0346788  66.9425166  51.8696808  15.9304438
  66.7779279  51.2440754  14.5617198  61.2519578  47.3163668  20.5599369
  61.1139375  46.5843907  21.1610908  62.1624501  47.2272569  20.2783557
  70.2134525  49.2552073   5.3083847  69.5963696  48.5298901   5.2116900
  69.7451014  50.0161433   4.9650922  63.8801878  47.0283628  20.0483049
  64.5901497  46.3876820  20.0069667  63.8371186  47.2796523  20.9709229
  71.8688657  53.9650981  22.9689628  71.8101203  53.2810201  22.3020211
  72.2708175  54.7069971  22.5170254  62.5930812  44.0148846  21.8678688
  62.0568169  43.5639584  22.5200284  62.0047521  44.1494754  21.1249152
  60.8879356  60.7812895  15.7623347  61.1275954  61.4131419  16.4402365
  60.0448552  60.4300935  16.0488706  62.0033071  43.4737497   4.4305152
  61.1262537  43.3526298   4.0667398  62.4790824  42.6823575   4.1784040
  71.8706064  51.9290565  21.2003607  70.9832843  51.5916487  21.3230006
  72.4404615  51.1973596  21.4372373  53.5235211  48.2614657  14.5246659
  54.2106251  47.9476387  13.9367674  53.3683340  49.1656021  14.2513910
  58.3269933  43.1504853  18.9531683  58.2428122  42.5430523  18.2182092
  57.5052640  43.6413872  18.9541179  65.4007218  56.5892017  18.1664851
  65.3277389  57.3946989  18.6784155  64.9584611  56.7883983  17.3412872
  65.1896997  55.8263787  11.6767672  64.4064519  56.3685468  11.7705897
  65.8889742  56.3437767  12.0761913  68.4993647  41.6358417  14.3201878
  68.9962347  40.8828379  14.0002948  67.7280629  41.6722733  13.7545087
  76.3523405  47.3398782  15.9620169  76.3413281  48.2223498  15.5914102
  75.4840784  46.9870333  15.7674706  67.8605901  56.4878851  20.3223009
  68.5733873  57.1226316  20.2498911  67.3695930  56.5842717  19.5063011
  69.5823428  50.3930104  11.8940301  68.6479707  50.5131567  11.7245005
  69.7600096  49.4902571  11.6300311  65.0828616  43.7775800  14.0473562
  64.7126404  43.2246840  14.7354468  65.5787709  43.1733933  13.4948562
  72.9695979  46.2347423  12.4290335  73.4356432  47.0675415  12.3550638
  73.4203480  45.7692405  13.1335594  62.9117815  54.2373295  21.1428580
  63.6127274  54.8709778  21.2957974  62.4412930  54.5788026  20.3824219
  71.0372210  52.5791245   9.4276487  71.3132054  52.4647839  10.3370361
  70.1676709  52.1808729   9.3888660  70.9412642  38.6028010  16.4681236
  70.0275722  38.8332237  16.6363443  71.3705744  38.6866454  17.3195269
  70.7119101  46.7917902  18.9681130  70.0590551  47.0393810  18.3133583
  71.0899480  45.9782040  18.6343608  67.6726274  56.8277595  13.0709301
  67.8548669  56.0099251  13.5337053  68.4959260  57.0445288  12.6334191
  68.0068440  55.7545781  10.3324349  68.5356206  55.2438235   9.7194511
  68.2696660  55.4388311  11.1969882  66.7606674  47.5337713  25.4547168
  66.0847311  47.4331843  26.1249543  67.5834307  47.3776927  25.9183165
  58.5085533  53.7709650  18.0759683  59.0938969  53.0253338  18.2087587
  58.3110371  54.0813607  18.9596347  61.3624188  56.8060897  13.0922125
  60.6934563  57.2907025  12.6086165  61.2237058  57.0530118  14.0065504
  53.1003187  46.3415250  16.7964126  53.1387287  45.8078841  17.5901244
  52.5943480  45.8150456  16.1775103  65.5029456  58.8404641  19.6904784
  66.0547765  59.0036262  20.4553869  65.8435650  59.4309079  19.0184808
  60.4793950  41.1879791  20.2926668  60.5435276  42.0494622  19.8804066
  60.4161070  40.5753792  19.5599027  59.9546222  43.2602923  23.9399703
  60.5818261  42.8780000  24.5537227  59.0974141  43.0417125  24.3055395
  70.3540331  53.6665898  25.5453438  70.8980235  54.2795857  25.0508393
  69.7727176  54.2245477  26.0620451  56.7311765  45.0679352   9.8718057
  57.0265206  44.1590031   9.8185111  55.8299801  45.0467092   9.5499060
  68.6397844  56.7886616  16.6768466  68.5148983  55.9876356  16.1679411
  69.2976935  57.2832810  16.1882436  60.2606012  43.1435349  15.8545606
  59.5392598  43.7571317  15.7153079  61.0499268  43.6793114  15.7762252
  70.7032752  54.5895636  18.3048016  69.7563088  54.4700988  18.2326343
  71.0515525  53.7018134  18.3874277  63.0632326  40.4789775  22.1286258
  63.5866727  40.7252072  22.8912567  62.8444659  41.3109810  21.7089395
  58.4599607  42.7493450   9.9957382  58.1312313  41.8690829   9.8132488
  58.8138977  42.6941119  10.8833772  67.7079185  54.3848353  14.5052368
  67.5604148  53.4565060  14.6859938  68.5332679  54.4068443  14.0209443
  61.5741430  43.0366420  10.3632860  61.9137502  43.5652341   9.6411469
  62.0213550  43.3746826  11.1391427  71.3113307  55.2076911  15.5917241
  72.2359855  55.0019773  15.4541692  71.1428611  54.9593313  16.5006582
  64.2684871  41.4203470  19.8135928  63.9281691  40.6211284  20.2156608
  63.5623877  41.7205181  19.2412761  64.9201342  38.5052783  18.2663251
  65.7427412  38.0313261  18.1442142  65.1639406  39.2843267  18.7661938
  63.5609577  41.5341041   8.5626153  64.2817939  41.9122294   8.0589870
  62.9374881  42.2529918   8.6661131  67.7040700  42.2386190   9.4984485
  67.9204314  43.1210828   9.1973313  67.2234767  41.8472404   8.7690127
  62.4439921  45.1971904  16.0755230  62.2984502  45.5112207  16.9679511
  61.9665125  45.8156804  15.5226129  64.3036304  42.1874451  16.1236119
  64.2897873  41.2915545  15.7868417  65.0208732  42.1945115  16.7574405
  66.1562435  42.6211792  18.1689247  65.8980213  43.5428862  18.1673577
  65.6247475  42.2242226  18.8589711  71.1008624  55.7262579  10.9479332
  71.2745501  55.1609001  10.1953185  71.5937515  56.5263474  10.7658822
  56.9185583  47.7377248  19.0142891  56.3739051  48.5137056  19.1463165
  57.7964933  48.0848052  18.8562012  63.7073200  41.0688832  11.3923690
  63.8289111  40.1405478  11.5914577  63.4175242  41.0827518  10.4802005
  66.5764390  38.7543742  14.5290409  66.5986087  38.8183075  13.5742389
  66.9932449  37.9148251  14.7230916  76.9548015  48.4899002  12.5669632
  77.3979161  47.7406327  12.1688755  76.0774525  48.4809138  12.1843364
  72.0883796  55.0429343   8.0476231  72.7834701  55.6636036   8.2663545
  72.4306946  54.1924694   8.3228608  57.7051605  46.8647144  21.9073048
  56.9633341  47.0129780  22.4937678  57.3844349  47.1255410  21.0439797
  73.9875219  52.4929049   9.5763561  74.5126543  52.8316322   8.8512881
  73.8997572  51.5576064   9.3926696  65.6495268  56.4063122  21.7053438
  65.9582394  56.1612269  22.5776138  66.4470750  56.6109761  21.2172308
  65.6715880  58.5601032  13.9358814  65.2320870  58.0677411  14.6291671
  66.4223997  58.0174000  13.6950890  58.1508219  54.7512573  13.9383443
  58.9766239  54.4516345  13.5582086  57.8002271  53.9820195  14.3873231
  63.1189752  54.1039041  16.0081116  62.4969761  53.4409746  15.7083344
  63.7894619  54.1300173  15.3254764  56.3516824  52.6698899  14.8972376
  55.5148732  52.2421074  14.7156377  56.3240469  52.8631343  15.8343167
  63.1914280  42.5820829  25.6013622  63.2402435  43.4582952  25.2191392
  63.7336794  42.0398222  25.0285265  73.6769125  53.1261952  24.8814759
  72.8864669  53.1086091  24.3419259  73.4402480  53.6650246  25.6363796
  73.7967000  49.9754419  22.1947488  73.8465005  49.8104426  23.1363011
  73.6880924  49.1081678  21.8045369  62.6803259  52.6542964   9.4839577
  62.8291379  53.3378429   8.8306249  63.4869702  52.6348055   9.9989032
  71.0870763  45.9585347  23.5106794  71.9880625  45.8191812  23.2190792
  71.1618737  46.1239802  24.4504972  65.4213568  43.3352202  22.3559981
  64.5516877  43.6285768  22.0842569  65.6573048  43.9192647  23.0767244
  75.2985197  52.3951360  22.4389509  75.0070005  52.7581341  23.2752970
  74.6857328  51.6818369  22.2602841  76.4980879  49.9604240  14.9592080
  77.3327771  50.3994044  15.1229640  76.6340008  49.4842893  14.1400325
  73.5472385  47.5183975  20.9069567  74.0226507  47.7111621  20.0988419
  72.6237951  47.5743161  20.6612951  60.4355892  48.6808142  10.4900646
  60.1901934  47.7770472  10.6880856  60.6051806  48.6825293   9.5480124
  68.1252602  39.5531818  19.8725401  68.6434546  40.2892845  19.5471890
  67.7707735  39.8595812  20.7072160  59.7051539  44.4136500   7.9886807
  59.0120784  44.4880855   7.3326843  59.4603291  43.6496843   8.5108324
  68.3765196  35.9732101  15.3926298  68.6566950  35.3055290  16.0186724
  69.1615803  36.1661197  14.8800962  66.1798664  55.1491095   6.9551324
  65.6072632  55.7681282   6.5021796  66.7531458  55.6990457   7.4891246
  72.2474054  44.3949735  19.1397873  73.1991477  44.4947833  19.1610097
  72.0777505  43.6028004  19.6495957  70.2688434  41.4805318  19.3257274
  69.6738366  41.7610331  18.6303762  69.9838130  41.9699219  20.0974015
  69.3995924  55.4328245   8.0859906  70.3326597  55.3673807   8.2892782
  69.3119137  56.2684512   7.6274439  72.0283941  54.7494115   5.0463854
  71.9497572  54.4153979   5.9399612  72.8493608  55.2415883   5.0455326
  74.7262132  47.6155855  18.2540173  74.6938452  46.6771855  18.4399856
  75.3362756  47.6939891  17.5205997  66.5645463  46.4851908   4.2967377
  67.5104568  46.3558116   4.3655795  66.1859708  45.7466570   4.7736805
  74.8756621  44.4066898  18.2998456  74.3595669  43.6225355  18.1128385
  75.7596569  44.0785615  18.4644975  72.5367347  38.1507914  14.2594268
  72.3392169  37.8423002  15.1437600  73.1467053  38.8769553  14.3892198
  80.5438682  48.6771862  17.3946209  81.2742070  48.4157150  17.9553913
  79.9345627  47.9400583  17.4348277  78.6253979  46.8179724  17.9920661
  77.8987143  46.6835689  17.3837152  78.2101266  47.1256553  18.7977379
  66.4484155  50.5369654  25.7568034  67.3687165  50.7148253  25.9508080
  66.4133739  49.5925699  25.6047733  64.7488380  44.4101884   4.2322262
  63.8419835  44.1134997   4.3084975  65.0264361  44.1131702   3.3656548
  55.6666320  45.7308247  14.6821308  55.3469105  44.8773556  14.3895682
  55.1199749  45.9456826  15.4379276  59.4446228  48.4470688  18.3990815
  59.6632238  49.3787796  18.4178849  59.8572002  48.0878663  19.1845619
  66.3650446  38.9538774  10.3866503  65.5551174  38.6085859  10.7621749
  67.0534863  38.6446317  10.9754115  68.2940994  38.0316821  12.0090800
  68.8472033  38.4512274  12.6680823  68.5311080  37.1052569  12.0513756
  64.3174093  44.0203894  27.7893564  64.2170820  44.9698251  27.7205655
  64.0995635  43.6922133  26.9169634  63.5187165  41.2688819   4.3734241
  64.3806329  41.5943718   4.6330058  63.7037509  40.4820315   3.8607307
  55.5354580  49.3511159  16.6514430  54.8418052  48.9365112  16.1384384
  56.2827571  49.3931695  16.0547849  71.6719801  40.1417346  11.5169464
  71.0918470  40.8002150  11.1347516  71.4055734  39.3194690  11.1056882
  70.1223368  39.5422403  13.7190784  70.6223146  39.6538938  12.9105103
  70.7658975  39.2383456  14.3591593  64.1805363  47.4501033  26.6058625
  63.6972445  48.2501393  26.8122514  64.2666302  47.4608978  25.6526069
  57.4491323  49.2829413  14.5280445  57.4262011  49.3817100  13.5762328
  57.7591959  50.1294564  14.8497611  60.1078701  51.3405568  18.6427059
  61.0621954  51.3089510  18.5756991  59.9091224  50.8796191  19.4577285
  60.6978083  49.9106684  21.2097857  61.5170972  50.4050762  21.2332694
  60.9714891  48.9938652  21.1815424  70.4544679  42.3017436  10.5725812
  69.5670534  42.5867087  10.3546007  70.8698668  42.1411199   9.7253089
  73.8059215  42.3263957  14.2880152  74.5819605  42.8160410  14.5604768
  73.0807350  42.7522011  14.7452021  76.2431774  43.0391576  15.3454092
  76.8376265  42.7987312  14.6347400  76.3158358  42.3198707  15.9727628
  58.4628930  56.8825187  15.6597257  58.3283398  56.1225588  15.0935255
  58.0460992  57.6066087  15.1926046  69.5987893  52.0662111   4.6673832
  70.3023743  52.2712113   5.2831488  68.8750541  52.6338873   4.9322916
  70.4285703  47.8171972  10.7876102  70.3720904  48.2740523   9.9483735
  70.9814045  47.0562657  10.6098945  74.2390509  43.6061704  11.6126222
  73.9827443  43.2058340  12.4434430  73.6143377  44.3205498  11.4876361
  78.5502847  46.3457777  14.1197513  77.9902405  46.4150966  14.8929075
  77.9446350  46.1698762  13.3997010  61.6198056  57.7794504  15.8715700
  61.5030440  58.7239937  15.7694390  60.7990502  57.4768066  16.2601499
  71.5074590  52.5044640   6.7172292  72.3420194  52.0725838   6.5349767
  71.3458933  52.3326654   7.6449187  71.1620482  49.0076753   8.0828632
  71.1069286  48.8421025   7.1417076  70.5366538  49.7152786   8.2390821
  55.9512997  44.2444818  21.9090054  56.5971861  43.7343772  22.3977279
  55.7430148  44.9813499  22.4833479  68.4766389  51.3125665  27.4082194
  69.3457549  51.4866317  27.0468829  67.9973141  52.1320082  27.2857924
  64.4716608  38.5084862   7.6613950  64.4595278  39.4526702   7.8182221
  65.3640030  38.3255008   7.3673411  62.6452570  58.4322766  19.0871628
  63.5479816  58.4646376  19.4038123  62.4189940  57.5023217  19.1017964
  64.4006172  57.1853753  15.7481707  63.4501803  57.1855614  15.6346079
  64.7038658  56.4386487  15.2317741  68.2868727  35.1027639  11.9159887
  67.5201123  34.5486126  12.0616569  68.6979432  35.1749508  12.7774038
  60.2910488  41.3912435  26.0065068  61.1541950  41.0349240  26.2168393
  59.7175899  41.0526330  26.6940472  80.1358865  63.0214291  16.8127469
  80.7737275  62.9021038  16.1090809  80.0179708  63.9695135  16.8715421
  76.9448571  62.9741719  16.7488994  76.6067083  62.8582784  15.8609529
  77.8138340  62.5732884  16.7290000  72.8035387  64.8277196  12.7385885
  72.2400252  64.7367133  11.9702172  72.6887782  64.0077100  13.2188377
  77.4268354  64.1276571  22.7075199  77.4156995  63.7329369  21.8355703
  77.5888994  63.3942644  23.3008971  70.3499819  66.3228387  15.5770105
  71.1421111  65.9819212  15.1616404  70.5896469  66.4323362  16.4972258
  78.3834946  68.4948163   8.0500350  77.7322926  69.0802244   7.6634363
  79.1779309  69.0254358   8.1095387  72.3090573  65.5837300   8.4487484
  73.0821449  65.0366288   8.3100360  72.6615972  66.4481550   8.6601945
  74.1475616  66.9113683  21.6554383  73.8565482  67.8159314  21.5401050
  74.7832600  66.9530210  22.3698453  75.0731822  64.2890531  18.2455743
  75.6695395  64.0646554  17.5312706  75.1306794  63.5475277  18.8481191
  74.6456851  61.7429967   6.0805934  74.8982372  61.2211488   5.3189397
  73.7081410  61.5796112   6.1832617  79.6900134  60.7465745  13.8880677
  80.4763223  60.3285168  13.5371094  79.9538838  61.6511837  14.0562325
  79.8610211  66.1838595   8.5869334  79.2256044  66.2573222   9.2990239
  79.5307617  66.7732194   7.9088413  85.0908561  60.6840978  14.7913656
  85.8233733  60.1140195  15.0251485  84.3347916  60.2962579  15.2320161
  74.3653140  63.6458073   8.2830309  74.2489398  62.9702976   8.9511393
  74.4755399  63.1590446   7.4662462  76.7084681  63.1068220  11.9876998
  76.3442888  62.5798841  12.6989920  77.5651796  62.7166689  11.8143483
  82.6133981  54.3962552  19.2508264  82.2817306  55.2657963  19.0269479
  82.0179595  54.0798836  19.9302295  76.3490167  58.1358119   6.9838347
  76.5164570  59.0038356   7.3508818  76.1587337  58.2985401   6.0599636
  79.1065501  66.5975098  18.6504177  78.8066224  67.5000137  18.5419984
  78.7616560  66.3307281  19.5025330  72.5577982  63.0488895  14.6840881
  71.6328479  62.9165109  14.8918573  72.8062395  63.8283114  15.1810824
  82.5062644  59.1157638  16.3301614  81.5979522  59.0473047  16.0360375
  82.4550240  59.5929583  17.1583440  76.3279388  60.5915777   7.9685013
  76.2079014  61.0372828   8.8070494  75.6331977  60.9401095   7.4098552
  69.9186793  62.6922169  15.5184670  70.0479174  62.9456648  16.4324082
  69.2384245  63.2849877  15.1989326  74.0886280  73.3619419  11.6175145
  74.0110310  74.3127244  11.6963625  73.4847924  73.0165291  12.2750071
  76.5803510  60.5347284  24.2736512  75.8036844  61.0941204  24.2639376
  77.2194073  61.0204067  24.7951382  84.3724291  57.3174077  18.1079488
  83.7298671  57.6106610  17.4619283  83.8679219  57.2026997  18.9132685
  82.0264455  61.0637250   8.7965347  82.9382311  61.2964637   8.6213045
  81.5174102  61.6474294   8.2340426  74.8349883  63.3432737  23.8354479
  75.5764567  63.8817781  23.5589302  74.1286868  63.9699026  23.9926030
  80.3105222  65.4861878  22.4326640  80.7188578  65.0444288  21.6881272
  79.5882484  64.9114505  22.6860833  76.6636292  60.4234485  19.8060197
  77.5097487  60.8473898  19.9494846  76.6034930  59.7668109  20.4998760
  80.6334037  66.0463068  16.1878929  80.0042899  66.2108783  15.4854997
  80.2459699  66.4604678  16.9589893  84.5123269  66.9817506  13.5423293
  83.8274307  67.3616408  12.9920326  84.5967118  67.5912833  14.2755240
  79.8135738  58.0838853  21.4641371  79.5696669  58.8380913  20.9275646
  80.0895668  58.4624201  22.2988618  81.7674200  64.6277465  20.1418636
  81.9791096  65.2709225  19.4653017  81.7203949  63.7939782  19.6740566
  79.3700429  57.2395286  17.0455208  78.5084908  57.5376540  17.3371946
  79.3962864  57.4565685  16.1136241  76.1861999  65.7837477  13.4529014
  76.6500344  66.0625180  12.6633637  75.9218797  64.8820921  13.2702105
  73.0786080  65.3308958  16.3908777  73.6487437  65.7596226  15.7526262
  73.6694192  65.0491543  17.0892963  75.1230885  61.9060629  10.2618579
  75.8254928  62.3581673  10.7292506  74.7911513  61.2644448  10.8898472
  73.5711246  60.4972386  24.6369789  72.9409907  61.1788666  24.8705185
  73.4647334  60.3855467  23.6922927  68.8656219  60.1644182  15.5635713
  68.0755273  60.4201710  15.0875823  69.3567466  60.9792519  15.6687753
  82.8820028  67.5049421  18.3140994  83.7037472  67.1029608  18.0323675
  82.8782431  67.4017655  19.2657109  70.8170964  60.5288761  12.5219189
  70.0202127  60.6407455  13.0402685  70.5896556  60.8675413  11.6560080
  76.6476632  67.0533464  20.4701704  76.7121064  67.5153871  21.3059876
  75.9387556  66.4230829  20.5984014  67.1493922  60.4174672  17.9950704
  67.4001960  61.3021682  18.2608279  67.6853470  60.2379274  17.2225795
  90.9726021  63.8488169  14.6625965  90.2189730  63.2795567  14.5069969
  91.1073563  63.8150834  15.6096600  76.3624649  68.7201572  10.3380684
  76.2270324  69.5653107  10.7665532  76.9034462  68.9220849   9.5746618
  72.8491989  54.7993151  26.9995040  72.4558935  54.2459350  27.6742684
  73.6658129  55.1103730  27.3901557  69.8154047  66.2377010  10.9108609
  70.3278567  67.0320260  11.0614174  70.4676760  65.5403300  10.8442211
  71.6248931  69.3542766  12.9931363  71.8015560  70.2760731  12.8052347
  72.4205765  69.0401185  13.4225742  75.7659950  56.2151030  24.5915296
  76.5069663  56.8158184  24.5119759  75.9977873  55.4728668  24.0333339
  70.9101288  61.4007398  22.8693526  70.7954803  60.4992655  23.1700625
  70.0545806  61.6471095  22.5178342  77.9893126  69.3425138  24.4681026
  77.5456980  68.5561517  24.1501931  78.6510339  69.5304289  23.8024917
  72.7480247  70.8720940  18.9941705  73.2987672  70.7438003  18.2218699
  71.9091723  71.1715829  18.6436598  80.0874364  69.6227938  22.4962428
  80.0692839  70.4436819  22.0042697  81.0094284  69.4982013  22.7212569
  76.5447418  67.1372067  23.3385936  77.0775755  66.3760356  23.1085244
  76.0161499  66.8445719  24.0810091  79.7117113  52.2432133  18.8679578
  79.3681382  53.1333775  18.7918688  80.0796076  52.0533791  18.0049163
  67.7802964  64.5665664  11.6868180  68.6178186  64.9762672  11.4701888
  67.9581231  63.6265106  11.6568374  79.6767396  62.2340745   7.3752013
  79.1614019  63.0045349   7.6140400  79.4044704  61.5605881   7.9985074
  77.2614507  57.0790445  12.4337251  76.4056103  56.6897296  12.2542890
  77.6741458  57.1582406  11.5737037  78.7913653  54.6136789  16.8328811
  78.2878449  54.5766924  16.0196616  79.0844260  55.5229531  16.8925468
  75.0356539  54.6975518  15.8394993  75.9009536  54.5018327  15.4800882
  75.1034048  54.4685870  16.7664350  84.6501670  64.9873099   9.3105186
  83.8731113  64.6484259   8.8660349  85.3293151  64.9925722   8.6360151
  79.4653699  60.1067837   9.2011794  79.1603834  60.4213986  10.0521937
  80.4184141  60.1849257   9.2439127  77.9100131  66.2658060  10.8504748
  77.3821492  65.5310820  10.5377986  77.4087633  67.0432736  10.6044716
  82.8892977  64.4607080  15.9671794  82.2316651  65.1506342  16.0551923
  83.6933376  64.8503512  16.3105781  72.6418858  56.9277726  13.2111360
  73.2162610  56.7052908  12.4784553  73.2289841  56.9966421  13.9639961
  81.6998436  62.8151453  14.0175736  82.2130317  63.4481445  14.5197446
  82.3499659  62.2152649  13.6519096  72.9688445  58.9582187   7.2307245
  72.1325758  59.2956874   7.5516520  72.8293215  58.8231167   6.2934382
  74.9441526  53.8018975  11.9386429  74.2905938  53.4867992  11.3143044
  74.9022000  53.1794716  12.6646252  76.0552731  64.0838270   3.8539721
  75.1479793  63.8527524   4.0530870  76.5523763  63.2875889   4.0413703
  78.1779266  60.2900909  16.2634077  77.2601828  60.5115856  16.1055765
  78.5939410  60.3647219  15.4045784  78.9614314  61.6892324  11.3936757
  79.7086133  62.2013722  11.0843879  79.2305904  61.3676377  12.2541151
  77.2340964  64.1850865   8.3763711  76.3252184  63.9009898   8.4736181
  77.2636048  64.6049944   7.5167018  82.4660232  67.7957455  12.1454879
  82.0122559  66.9548364  12.2020069  81.8354198  68.4318853  12.4829659
  81.4093151  58.7249441  13.3755546  80.6715908  58.2126827  13.7065789
  81.6619925  58.2849822  12.5638823  80.9093171  69.6333951  13.0804697
  81.2016145  70.1939008  12.3617063  81.4191792  69.9262512  13.8357856
  81.5104779  51.5025693  13.9697316  81.8163655  50.6423056  13.6823231
  82.2357383  52.0943313  13.7696309  67.8029135  61.9056379  12.3578913
  67.6053535  61.3125740  11.6329980  67.2475799  61.6008589  13.0754852
  75.7825858  61.7979486  14.4773507  75.8374468  60.8453322  14.4015983
  74.9717060  61.9538925  14.9614805  76.9317052  65.7259609   5.7151790
  76.4936482  65.0095468   5.2557427  77.6727493  65.9535724   5.1536881
  73.7218218  60.4156545  12.2363885  72.9086084  60.7150716  12.6429078
  74.2177212  60.0212234  12.9538368  75.8726796  70.4114302  14.1698150
  75.8302975  70.6375149  13.2406682  76.7889495  70.1777677  14.3183951
  79.3192430  60.8798370  21.0678779  79.6741818  61.1069843  21.9273245
  79.9664561  61.2116747  20.4456035  85.0490167  64.0016806  11.7728108
  84.9108065  64.1918402  10.8449298  84.6926386  64.7636189  12.2296160
  73.2132293  57.9874901  17.8525120  73.8531672  57.8463660  17.1548084
  72.3809824  57.7009414  17.4763722  85.0759547  66.0693333  16.7839380
  85.5096053  65.9768622  17.6322434  85.7891127  66.0450833  16.1459396
  73.9892597  67.2877331  13.9660113  74.7833195  66.7927652  13.7642688
  73.2784289  66.7595194  13.6027818  78.8087441  69.6695427  18.3172480
  78.8624464  70.2386363  19.0850196  77.9402223  69.8397312  17.9526518
  70.2975360  61.4320413  10.0419866  69.3672949  61.3704869  10.2589828
  70.3932832  60.9096366   9.2456507  70.2160909  57.9575226  12.6298107
  70.4767727  58.8720559  12.5207268  71.0378082  57.4899669  12.7794720
  71.6885835  59.3712983  19.7996932  72.3608888  59.1630345  19.1509581
  70.8615621  59.1735069  19.3602164  85.9375096  66.1117033  19.3172265
  86.1310986  67.0162844  19.5631540  85.8375714  65.6524453  20.1510850
  77.5911407  55.9974924  21.8162593  76.9439322  56.6964874  21.7227069
  78.3612422  56.4311068  22.1838841  80.9990205  66.2623776  24.8913146
  80.8475711  66.0334328  23.9743230  80.9894884  67.2194378  24.9044491
  77.7675541  63.8355689  19.8759412  78.6967601  63.9866849  19.7028380
  77.3466571  63.9239710  19.0208059  76.5663873  67.8606353  17.6457950
  76.4274959  67.4925138  18.5183888  75.7778469  68.3753993  17.4741908
  77.1612025  72.9615450   8.9883486  77.3363781  72.4903493   9.8029109
  76.4744813  73.5881216   9.2164747  78.1169088  67.2387956  15.0346788
  77.7818921  67.1988726  15.9304438  77.6173034  66.5732672  14.5617198
  72.0913332  62.6455586  20.5599369  71.9533130  61.9135825  21.1610908
  73.0018256  62.5564486  20.2783557  81.0528280  64.5843990   5.3083847
  80.4357450  63.8590819   5.2116900  80.5844768  65.3453351   4.9650922
  74.7195633  62.3575545  20.0483049  75.4295251  61.7168738  20.0069667
  74.6764941  62.6088440  20.9709229  82.7082411  69.2942899  22.9689628
  82.6494958  68.6102119  22.3020211  83.1101930  70.0361889  22.5170254
  73.4324567  59.3440763  21.8678688  72.8961924  58.8931502  22.5200284
  72.8441275  59.4786672  21.1249152  71.7273110  76.1104813  15.7623347
  71.9669708  76.7423337  16.4402365  70.8842307  75.7592853  16.0488706
  72.8426826  58.8029415   4.4305152  71.9656292  58.6818215   4.0667398
  73.3184579  58.0115493   4.1784040  82.7099819  67.2582483  21.2003607
  81.8226597  66.9208404  21.3230006  83.2798370  66.5265514  21.4372373
  64.3628966  63.5906574  14.5246659  65.0500006  63.2768304  13.9367674
  64.2077094  64.4947939  14.2513910  69.1663688  58.4796771  18.9531683
  69.0821877  57.8722441  18.2182092  68.3446394  58.9705789  18.9541179
  76.2400972  71.9183935  18.1664851  76.1671144  72.7238907  18.6784155
  75.7978365  72.1175901  17.3412872  76.0290752  71.1555705  11.6767672
  75.2458274  71.6977385  11.7705897  76.7283497  71.6729685  12.0761913
  79.3387402  56.9650335  14.3201878  79.8356101  56.2120297  14.0002948
  78.5674383  57.0014651  13.7545087  87.1917159  62.6690700  15.9620169
  87.1807035  63.5515415  15.5914102  86.3234539  62.3162251  15.7674706
  78.6999656  71.8170769  20.3223009  79.4127628  72.4518234  20.2498911
  78.2089684  71.9134635  19.5063011  80.4217182  65.7222022  11.8940301
  79.4873461  65.8423484  11.7245005  80.5993851  64.8194489  11.6300311
  75.9222371  59.1067718  14.0473562  75.5520158  58.5538758  14.7354468
  76.4181463  58.5025851  13.4948562  83.8089734  61.5639341  12.4290335
  84.2750186  62.3967333  12.3550638  84.2597234  61.0984323  13.1335594
  73.7511569  69.5665213  21.1428580  74.4521029  70.2001695  21.2957974
  73.2806684  69.9079944  20.3824219  81.8765965  67.9083162   9.4276487
  82.1525809  67.7939757  10.3370361  81.0070464  67.5100647   9.3888660
  81.7806397  53.9319928  16.4681236  80.8669476  54.1624155  16.6363443
  82.2099498  54.0158372  17.3195269  81.5512855  62.1209820  18.9681130
  80.8984305  62.3685727  18.3133583  81.9293235  61.3073958  18.6343608
  78.5120029  72.1569513  13.0709301  78.6942423  71.3391169  13.5337053
  79.3353015  72.3737205  12.6334191  78.8462194  71.0837698  10.3324349
  79.3749961  70.5730153   9.7194511  79.1090414  70.7680228  11.1969882
  77.6000428  62.8629631  25.4547168  76.9241065  62.7623760  26.1249543
  78.4228062  62.7068845  25.9183165  69.3479287  69.1001568  18.0759683
  69.9332724  68.3545255  18.2087587  69.1504126  69.4105524  18.9596347
  72.2017942  72.1352815  13.0922125  71.5328318  72.6198943  12.6086165
  72.0630812  72.3822035  14.0065504  63.9396942  61.6707168  16.7964126
  63.9781041  61.1370758  17.5901244  63.4337235  61.1442373  16.1775103
  76.3423211  74.1696558  19.6904784  76.8941519  74.3328180  20.4553869
  76.6829404  74.7600996  19.0184808  71.3187704  56.5171708  20.2926668
  71.3829031  57.3786539  19.8804066  71.2554824  55.9045710  19.5599027
  70.7939977  58.5894841  23.9399703  71.4212016  58.2071918  24.5537227
  69.9367896  58.3709043  24.3055395  81.1934085  68.9957816  25.5453438
  81.7373989  69.6087774  25.0508393  80.6120930  69.5537394  26.0620451
  67.5705519  60.3971270   9.8718057  67.8658961  59.4881948   9.8185111
  66.6693555  60.3759009   9.5499060  79.4791598  72.1178534  16.6768466
  79.3542738  71.3168274  16.1679411  80.1370689  72.6124727  16.1882436
  71.0999766  58.4727267  15.8545606  70.3786352  59.0863234  15.7153079
  71.8893022  59.0085031  15.7762252  81.5426507  69.9187554  18.3048016
  80.5956842  69.7992905  18.2326343  81.8909280  69.0310052  18.3874277
  73.9026080  55.8081693  22.1286258  74.4260482  56.0543990  22.8912567
  73.6838413  56.6401728  21.7089395  69.2993361  58.0785368   9.9957382
  68.9706067  57.1982747   9.8132488  69.6532732  58.0233036  10.8833772
  78.5472940  69.7140270  14.5052368  78.3997902  68.7856978  14.6859938
  79.3726433  69.7360361  14.0209443  72.4135184  58.3658337  10.3632860
  72.7531257  58.8944259   9.6411469  72.8607305  58.7038744  11.1391427
  82.1507062  70.5368829  15.5917241  83.0753609  70.3311690  15.4541692
  81.9822365  70.2885230  16.5006582  75.1078625  56.7495388  19.8135928
  74.7675445  55.9503201  20.2156608  74.4017631  57.0497099  19.2412761
  75.7595097  53.8344701  18.2663251  76.5821166  53.3605179  18.1442142
  76.0033160  54.6135184  18.7661938  74.4003331  56.8632959   8.5626153
  75.1211694  57.2414212   8.0589870  73.7768635  57.5821836   8.6661131
  78.5434454  57.5678108   9.4984485  78.7598069  58.4502746   9.1973313
  78.0628521  57.1764321   8.7690127  73.2833676  60.5263821  16.0755230
  73.1378256  60.8404124  16.9679511  72.8058879  61.1448722  15.5226129
  75.1430059  57.5166369  16.1236119  75.1291627  56.6207462  15.7868417
  75.8602487  57.5237033  16.7574405  76.9956189  57.9503709  18.1689247
  76.7373967  58.8720780  18.1673577  76.4641230  57.5534144  18.8589711
  81.9402378  71.0554496  10.9479332  82.1139256  70.4900919  10.1953185
  82.4331269  71.8555391  10.7658822  67.7579338  63.0669166  19.0142891
  67.2132806  63.8428974  19.1463165  68.6358688  63.4139970  18.8562012
  74.5466954  56.3980749  11.3923690  74.6682866  55.4697396  11.5914577
  74.2568997  56.4119435  10.4802005  77.4158145  54.0835660  14.5290409
  77.4379842  54.1474993  13.5742389  77.8326204  53.2440169  14.7230916
  87.7941769  63.8190919  12.5669632  88.2372915  63.0698245  12.1688755
  86.9168279  63.8101056  12.1843364  68.5445360  62.1939062  21.9073048
  67.8027096  62.3421697  22.4937678  68.2238104  62.4547327  21.0439797
  84.8268974  67.8220966   9.5763561  85.3520298  68.1608239   8.8512881
  84.7391326  66.8867982   9.3926696  76.4889022  71.7355040  21.7053438
  76.7976149  71.4904187  22.5776138  77.2864504  71.9401679  21.2172308
  76.5109634  73.8892950  13.9358814  76.0714625  73.3969328  14.6291671
  77.2617751  73.3465917  13.6950890  68.9901973  70.0804491  13.9383443
  69.8159993  69.7808262  13.5582086  68.6396025  69.3112113  14.3873231
  73.9583507  69.4330959  16.0081116  73.3363516  68.7701664  15.7083344
  74.6288373  69.4592091  15.3254764  67.1910578  67.9990817  14.8972376
  66.3542487  67.5712991  14.7156377  67.1634224  68.1923260  15.8343167
  74.0308034  57.9112747  25.6013622  74.0796189  58.7874870  25.2191392
  74.5730548  57.3690140  25.0285265  84.5162880  68.4553870  24.8814759
  83.7258423  68.4378009  24.3419259  84.2796234  68.9942164  25.6363796
  84.6360755  65.3046336  22.1947488  84.6858760  65.1396344  23.1363011
  84.5274678  64.4373595  21.8045369  73.5197013  67.9834882   9.4839577
  73.6685134  68.6670347   8.8306249  74.3263457  67.9639972   9.9989032
  81.9264517  61.2877264  23.5106794  82.8274380  61.1483729  23.2190792
  82.0012492  61.4531719  24.4504972  76.2607322  58.6644119  22.3559981
  75.3910632  58.9577685  22.0842569  76.4966803  59.2484564  23.0767244
  86.1378952  67.7243278  22.4389509  85.8463760  68.0873259  23.2752970
  85.5251083  67.0110286  22.2602841  87.3374634  65.2896158  14.9592080
  88.1721525  65.7285962  15.1229640  87.4733763  64.8134811  14.1400325
  84.3866140  62.8475893  20.9069567  84.8620261  63.0403539  20.0988419
  83.4631705  62.9035078  20.6612951  71.2749646  64.0100060  10.4900646
  71.0295688  63.1062390  10.6880856  71.4445561  64.0117210   9.5480124
  78.9646356  54.8823736  19.8725401  79.4828300  55.6184763  19.5471890
  78.6101489  55.1887729  20.7072160  70.5445294  59.7428417   7.9886807
  69.8514539  59.8172772   7.3326843  70.2997046  58.9788761   8.5108324
  79.2158950  51.3024019  15.3926298  79.4960704  50.6347208  16.0186724
  80.0009557  51.4953114  14.8800962  77.0192419  70.4783013   6.9551324
  76.4466386  71.0973200   6.5021796  77.5925213  71.0282374   7.4891246
  83.0867809  59.7241653  19.1397873  84.0385232  59.8239750  19.1610097
  82.9171259  58.9319921  19.6495957  81.1082188  56.8097236  19.3257274
  80.5132120  57.0902249  18.6303762  80.8231885  57.2991137  20.0974015
  80.2389679  70.7620163   8.0859906  81.1720352  70.6965724   8.2892782
  80.1512892  71.5976430   7.6274439  85.5655887  62.9447772  18.2540173
  85.5332207  62.0063773  18.4399856  86.1756510  63.0231809  17.5205997
  77.4039217  61.8143825   4.2967377  78.3498322  61.6850033   4.3655795
  77.0253462  61.0758487   4.7736805  85.7150375  59.7358816  18.2998456
  85.1989424  58.9517272  18.1128385  86.5990324  59.4077532  18.4644975
  83.3761102  53.4799831  14.2594268  83.1785923  53.1714920  15.1437600
  83.9860808  54.2061470  14.3892198  91.3832436  64.0063779  17.3946209
  92.1135825  63.7449067  17.9553913  90.7739382  63.2692501  17.4348277
  89.4647734  62.1471642  17.9920661  88.7380897  62.0127607  17.3837152
  89.0495020  62.4548470  18.7977379  77.2877910  65.8661571  25.7568034
  78.2080919  66.0440170  25.9508080  77.2527493  64.9217617  25.6047733
  75.5882135  59.7393802   4.2322262  74.6813590  59.4426914   4.3084975
  75.8658116  59.4423620   3.3656548  66.5060075  61.0600165  14.6821308
  66.1862859  60.2065473  14.3895682  65.9593503  61.2748743  15.4379276
  70.2839983  63.7762606  18.3990815  70.5025992  64.7079714  18.4178849
  70.6965756  63.4170581  19.1845619  77.2044200  54.2830691  10.3866503
  76.3944929  53.9377776  10.7621749  77.8928617  53.9738235  10.9754115
  79.1334749  53.3608738  12.0090800  79.6865787  53.7804192  12.6680823
  79.3704835  52.4344486  12.0513756  75.1567848  59.3495812  27.7893564
  75.0564575  60.2990169  27.7205655  74.9389390  59.0214051  26.9169634
  74.3580919  56.5980737   4.3734241  75.2200083  56.9235635   4.6330058
  74.5431263  55.8112233   3.8607307  66.3748335  64.6803077  16.6514430
  65.6811806  64.2657029  16.1384384  67.1221326  64.7223613  16.0547849
  82.5113556  55.4709263  11.5169464  81.9312225  56.1294067  11.1347516
  82.2449488  54.6486608  11.1056882  80.9617122  54.8714321  13.7190784
  81.4616900  54.9830856  12.9105103  81.6052730  54.5675374  14.3591593
  75.0199118  62.7792951  26.6058625  74.5366200  63.5793311  26.8122514
  75.1060057  62.7900896  25.6526069  68.2885077  64.6121330  14.5280445
  68.2655766  64.7109018  13.5762328  68.5985714  65.4586481  14.8497611
  70.9472455  66.6697485  18.6427059  71.9015709  66.6381428  18.5756991
  70.7484979  66.2088109  19.4577285  71.5371837  65.2398601  21.2097857
  72.3564726  65.7342680  21.2332694  71.8108645  64.3230570  21.1815424
  81.2938434  57.6309354  10.5725812  80.4064289  57.9159004  10.3546007
  81.7092423  57.4703117   9.7253089  84.6452970  57.6555875  14.2880152
  85.4213360  58.1452327  14.5604768  83.9201104  58.0813929  14.7452021
  87.0825528  58.3683494  15.3454092  87.6770019  58.1279230  14.6347400
  87.1552112  57.6490625  15.9727628  69.3022684  72.2117105  15.6597257
  69.1677152  71.4517506  15.0935255  68.8854746  72.9358005  15.1926046
  81.2679457  63.1463890  10.7876102  81.2114659  63.6032441   9.9483735
  81.8207800  62.3854574  10.6098945  85.0784263  58.9353622  11.6126222
  84.8221198  58.5350257  12.4434430  84.4537131  59.6497416  11.4876361
  89.3896601  61.6749695  14.1197513  88.8296159  61.7442884  14.8929075
  88.7840105  61.4990679  13.3997010  72.4591810  73.1086422  15.8715700
  72.3424194  74.0531854  15.7694390  71.6384256  72.8059983  16.2601499
  82.3468345  67.8336558   6.7172292  83.1813949  67.4017756   6.5349767
  82.1852687  67.6618571   7.6449187  82.0014237  64.3368671   8.0828632
  81.9463041  64.1712942   7.1417076  81.3760292  65.0444704   8.2390821
  66.7906752  59.5736735  21.9090054  67.4365615  59.0635689  22.3977279
  66.5823903  60.3105417  22.4833479  79.3160144  66.6417583  27.4082194
  80.1851304  66.8158235  27.0468829  78.8366895  67.4612000  27.2857924
  75.3110362  53.8376780   7.6613950  75.2989032  54.7818620   7.8182221
  76.2033784  53.6546925   7.3673411  73.4846324  73.7614684  19.0871628
  74.3873571  73.7938294  19.4038123  73.2583694  72.8315135  19.1017964
  75.2399926  72.5145670  15.7481707  74.2895557  72.5147532  15.6346079
  75.5432412  71.7678405  15.2317741  79.1262482  50.4319557  11.9159887
  78.3594877  49.8778043  12.0616569  79.5373187  50.5041425  12.7774038
  71.1304243  56.7204352  26.0065068  71.9935704  56.3641157  26.2168393
  70.5569653  56.3818247  26.6940472  90.9752620  78.3506209  16.8127469
  91.6131030  78.2312956  16.1090809  90.8573463  79.2987053  16.8715421
  87.7842326  78.3033637  16.7488994  87.4460837  78.1874702  15.8609529
  88.6532094  77.9024802  16.7290000  88.2662109  79.4568489  22.7075199
  88.2550750  79.0621287  21.8355703  88.4282748  78.7234561  23.3008971
  81.1893574  81.6520305  15.5770105  81.9814865  81.3111130  15.1616404
  81.4290224  81.7615280  16.4972258  84.9869370  82.2405600  21.6554383
  84.6959236  83.1451231  21.5401050  85.6226354  82.2822128  22.3698453
  85.9125577  79.6182449  18.2455743  86.5089149  79.3938471  17.5312706
  85.9700548  78.8767194  18.8481191  93.4527736  69.7254470  19.2508264
  93.1211060  70.5949881  19.0269479  92.8573349  69.4090754  19.9302295
  89.9459255  81.9267016  18.6504177  89.6459978  82.8292055  18.5419984
  89.6010315  81.6599199  19.5025330  83.3971737  78.3780813  14.6840881
  82.4722233  78.2457027  14.8918573  83.6456150  79.1575032  15.1810824
  93.3456399  74.4449556  16.3301614  92.4373276  74.3764965  16.0360375
  93.2943995  74.9221501  17.1583440  80.7580548  78.0214086  15.5184670
  80.8872929  78.2748565  16.4324082  80.0777999  78.6141794  15.1989326
  87.4197265  75.8639202  24.2736512  86.6430599  76.4233122  24.2639376
  88.0587828  76.3495985  24.7951382  95.2118045  72.6465994  18.1079488
  94.5692426  72.9398528  17.4619283  94.7072974  72.5318915  18.9132685
  85.6743637  78.6724655  23.8354479  86.4158321  79.2109699  23.5589302
  84.9680623  79.2990944  23.9926030  91.1498977  80.8153796  22.4326640
  91.5582333  80.3736206  21.6881272  90.4276238  80.2406423  22.6860833
  87.5030047  75.7526402  19.8060197  88.3491242  76.1765816  19.9494846
  87.4428684  75.0960027  20.4998760  90.6529492  73.4130771  21.4641371
  90.4090424  74.1672831  20.9275646  90.9289423  73.7916118  22.2988618
  92.6067955  79.9569383  20.1418636  92.8184850  80.6001143  19.4653017
  92.5597703  79.1231700  19.6740566  90.2094184  72.5687204  17.0455208
  89.3478663  72.8668457  17.3371946  90.2356618  72.7857603  16.1136241
  83.9179834  80.6600876  16.3908777  84.4881191  81.0888144  15.7526262
  84.5087946  80.3783460  17.0892963  84.4105001  75.8264303  24.6369789
  83.7803661  76.5080584  24.8705185  84.3041089  75.7147385  23.6922927
  79.7049973  75.4936099  15.5635713  78.9149027  75.7493628  15.0875823
  80.1961221  76.3084437  15.6687753  81.6564719  75.8580679  12.5219189
  80.8595882  75.9699373  13.0402685  81.4290311  76.1967331  11.6560080
  87.4870386  82.3825382  20.4701704  87.5514819  82.8445789  21.3059876
  86.7781310  81.7522747  20.5984014  77.9887676  75.7466590  17.9950704
  78.2395715  76.6313600  18.2608279  78.5247225  75.5671191  17.2225795
  83.6885744  70.1285069  26.9995040  83.2952689  69.5751268  27.6742684
  84.5051884  70.4395648  27.3901557  86.6053705  71.5442948  24.5915296
  87.3463418  72.1450101  24.5119759  86.8371627  70.8020586  24.0333339
  81.7495043  76.7299315  22.8693526  81.6348558  75.8284573  23.1700625
  80.8939560  76.9763012  22.5178342  88.8286880  84.6717056  24.4681026
  88.3850734  83.8853434  24.1501931  89.4904094  84.8596206  23.8024917
  83.5874001  86.2012857  18.9941705  84.1381427  86.0729921  18.2218699
  82.7485477  86.5007746  18.6436598  90.9268118  84.9519856  22.4962428
  90.9086594  85.7728737  22.0042697  91.8488038  84.8273931  22.7212569
  87.3841172  82.4663985  23.3385936  87.9169509  81.7052273  23.1085244
  86.8555254  82.1737637  24.0810091  90.5510867  67.5724051  18.8679578
  90.2075137  68.4625693  18.7918688  90.9189830  67.3825709  18.0049163
  88.1008261  72.4082363  12.4337251  87.2449858  72.0189213  12.2542890
  88.5135213  72.4874324  11.5737037  89.6307408  69.9428706  16.8328811
  89.1272203  69.9058841  16.0196616  89.9238015  70.8521449  16.8925468
  85.8750294  70.0267436  15.8394993  86.7403290  69.8310245  15.4800882
  85.9427803  69.7977788  16.7664350  83.4812613  72.2569644  13.2111360
  84.0556365  72.0344825  12.4784553  84.0683595  72.3258338  13.9639961
  85.7835281  69.1310893  11.9386429  85.1299693  68.8159910  11.3143044
  85.7415755  68.5086633  12.6646252  89.0173021  75.6192826  16.2634077
  88.0995582  75.8407773  16.1055765  89.4333164  75.6939137  15.4045784
  92.3498533  66.8317610  13.9697316  92.6557410  65.9714974  13.6823231
  93.0751138  67.4235230  13.7696309  78.6422889  77.2348297  12.3578913
  78.4447289  76.6417658  11.6329980  78.0869553  76.9300507  13.0754852
  86.6219613  77.1271403  14.4773507  86.6768223  76.1745240  14.4015983
  85.8110815  77.2830842  14.9614805  84.5611973  75.7448463  12.2363885
  83.7479838  76.0442634  12.6429078  85.0570967  75.3504152  12.9538368
  90.1586184  76.2090288  21.0678779  90.5135572  76.4361761  21.9273245
  90.8058316  76.5408664  20.4456035  84.0526048  73.3166819  17.8525120
  84.6925427  73.1755578  17.1548084  83.2203578  73.0301332  17.4763722
  81.0554664  73.2867144  12.6298107  81.3161481  74.2012477  12.5207268
  81.8771836  72.8191586  12.7794720  82.5279589  74.7004901  19.7996932
  83.2002643  74.4922263  19.1509581  81.7009376  74.5026987  19.3602164
  88.4305161  71.3266842  21.8162593  87.7833076  72.0256791  21.7227069
  89.2006177  71.7602986  22.1838841  91.8383959  81.5915694  24.8913146
  91.6869466  81.3626246  23.9743230  91.8288639  82.5486295  24.9044491
  88.6069296  79.1647607  19.8759412  89.5361356  79.3158766  19.7028380
  88.1860326  79.2531627  19.0208059  87.4057627  83.1898271  17.6457950
  87.2668713  82.8217055  18.5183888  86.6172224  83.7045910  17.4741908
  82.9307087  77.9747504  20.5599369  82.7926884  77.2427743  21.1610908
  83.8412010  77.8856404  20.2783557  85.5589387  77.6867463  20.0483049
  86.2689006  77.0460655  20.0069667  85.5158695  77.9380358  20.9709229
  93.5476166  84.6234816  22.9689628  93.4888712  83.9394037  22.3020211
  93.9495684  85.3653806  22.5170254  84.2718321  74.6732681  21.8678688
  83.7355678  74.2223419  22.5200284  83.6835030  74.8078590  21.1249152
  93.5493573  82.5874400  21.2003607  92.6620352  82.2500322  21.3230006
  94.1192124  81.8557432  21.4372373  75.2022720  78.9198492  14.5246659
  75.8893760  78.6060222  13.9367674  75.0470849  79.8239857  14.2513910
  80.0057442  73.8088689  18.9531683  79.9215631  73.2014358  18.2182092
  79.1840149  74.2997707  18.9541179  90.1781156  72.2942252  14.3201878
  90.6749856  71.5412215  14.0002948  89.4068138  72.3306569  13.7545087
  86.7616125  74.4359635  14.0473562  86.3913913  73.8830676  14.7354468
  87.2575217  73.8317769  13.4948562  84.5905324  84.8957130  21.1428580
  85.2914783  85.5293613  21.2957974  84.1200439  85.2371862  20.3824219
  92.6200151  69.2611846  16.4681236  91.7063231  69.4916073  16.6363443
  93.0493253  69.3450290  17.3195269  92.3906610  77.4501738  18.9681130
  91.7378060  77.6977645  18.3133583  92.7686989  76.6365876  18.6343608
  88.4394183  78.1921549  25.4547168  87.7634820  78.0915678  26.1249543
  89.2621816  78.0360762  25.9183165  80.1873042  84.4293485  18.0759683
  80.7726478  83.6837173  18.2087587  79.9897880  84.7397442  18.9596347
  74.7790696  76.9999085  16.7964126  74.8174796  76.4662676  17.5901244
  74.2730989  76.4734291  16.1775103  82.1581459  71.8463626  20.2926668
  82.2222785  72.7078457  19.8804066  82.0948579  71.2337628  19.5599027
  81.6333731  73.9186759  23.9399703  82.2605770  73.5363836  24.5537227
  80.7761650  73.7000960  24.3055395  92.0327840  84.3249734  25.5453438
  92.5767744  84.9379692  25.0508393  91.4514685  84.8829312  26.0620451
  78.4099274  75.7263188   9.8718057  78.7052715  74.8173866   9.8185111
  77.5087310  75.7050927   9.5499060  81.9393521  73.8019184  15.8545606
  81.2180107  74.4155152  15.7153079  82.7286777  74.3376949  15.7762252
  84.7419835  71.1373611  22.1286258  85.2654236  71.3835907  22.8912567
  84.5232168  71.9693645  21.7089395  80.1387116  73.4077285   9.9957382
  79.8099822  72.5274664   9.8132488  80.4926486  73.3524954  10.8833772
  85.9472380  72.0787306  19.8135928  85.6069200  71.2795119  20.2156608
  85.2411386  72.3789017  19.2412761  86.5988851  69.1636618  18.2663251
  87.4214921  68.6897096  18.1442142  86.8426915  69.9427102  18.7661938
  84.1227430  75.8555739  16.0755230  83.9772011  76.1696042  16.9679511
  83.6452634  76.4740639  15.5226129  85.9823813  72.8458287  16.1236119
  85.9685382  71.9499380  15.7868417  86.6996241  72.8528951  16.7574405
  87.8349944  73.2795627  18.1689247  87.5767722  74.2012698  18.1673577
  87.3034984  72.8826062  18.8589711  78.5973092  78.3961083  19.0142891
  78.0526560  79.1720891  19.1463165  79.4752442  78.7431888  18.8562012
  85.3860709  71.7272667  11.3923690  85.5076620  70.7989313  11.5914577
  85.0962751  71.7411353  10.4802005  88.2551899  69.4127578  14.5290409
  88.2773596  69.4766911  13.5742389  88.6719958  68.5732086  14.7230916
  79.3839114  77.5230980  21.9073048  78.6420850  77.6713615  22.4937678
  79.0631858  77.7839245  21.0439797  87.3282777  87.0646958  21.7053438
  87.6369903  86.8196105  22.5776138  88.1258259  87.2693596  21.2172308
  78.0304333  83.3282735  14.8972376  77.1936241  82.9004909  14.7156377
  78.0027978  83.5215178  15.8343167  84.8701788  73.2404664  25.6013622
  84.9189944  74.1166787  25.2191392  85.4124303  72.6982058  25.0285265
  95.3556634  83.7845788  24.8814759  94.5652178  83.7669927  24.3419259
  95.1189989  84.3234081  25.6363796  95.4754509  80.6338254  22.1947488
  95.5252514  80.4688262  23.1363011  95.3668433  79.7665513  21.8045369
  92.7658272  76.6169182  23.5106794  93.6668134  76.4775647  23.2190792
  92.8406246  76.7823637  24.4504972  87.1001077  73.9936037  22.3559981
  86.2304386  74.2869603  22.0842569  87.3360557  74.5776482  23.0767244
  96.9772706  83.0535196  22.4389509  96.6857514  83.4165176  23.2752970
  96.3644837  82.3402204  22.2602841  95.2259894  78.1767810  20.9069567
  95.7014016  78.3695457  20.0988419  94.3025460  78.2326996  20.6612951
  89.8040111  70.2115654  19.8725401  90.3222055  70.9476681  19.5471890
  89.4495244  70.5179647  20.7072160  90.0552705  66.6315936  15.3926298
  90.3354459  65.9639125  16.0186724  90.8403312  66.8245032  14.8800962
  93.9261563  75.0533570  19.1397873  94.8778986  75.1531668  19.1610097
  93.7565014  74.2611839  19.6495957  91.9475943  72.1389154  19.3257274
  91.3525875  72.4194166  18.6303762  91.6625639  72.6283054  20.0974015
  96.5544130  75.0650733  18.2998456  96.0383178  74.2809190  18.1128385
  97.4384078  74.7369450  18.4644975  94.2154856  68.8091749  14.2594268
  94.0179678  68.5006837  15.1437600  94.8254562  69.5353388  14.3892198
  88.1271664  81.1953489  25.7568034  89.0474674  81.3732088  25.9508080
  88.0921247  80.2509534  25.6047733  77.3453829  76.3892083  14.6821308
  77.0256614  75.5357391  14.3895682  76.7987258  76.6040661  15.4379276
  81.1233737  79.1054524  18.3990815  81.3419747  80.0371632  18.4178849
  81.5359511  78.7462498  19.1845619  88.0437955  69.6122609  10.3866503
  87.2338683  69.2669694  10.7621749  88.7322372  69.3030153  10.9754115
  89.9728503  68.6900656  12.0090800  90.5259542  69.1096109  12.6680823
  90.2098589  67.7636404  12.0513756  85.9961602  74.6787730  27.7893564
  85.8958329  75.6282087  27.7205655  85.7783144  74.3505968  26.9169634
  77.2142089  80.0094994  16.6514430  76.5205561  79.5948947  16.1384384
  77.9615080  80.0515531  16.0547849  91.8010877  70.2006239  13.7190784
  92.3010655  70.3122773  12.9105103  92.4446484  69.8967292  14.3591593
  85.8592872  78.1084868  26.6058625  85.3759954  78.9085229  26.8122514
  85.9453811  78.1192813  25.6526069  79.1278832  79.9413248  14.5280445
  79.1049520  80.0400935  13.5762328  79.4379468  80.7878399  14.8497611
  81.7866210  81.9989403  18.6427059  82.7409463  81.9673345  18.5756991
  81.5878733  81.5380027  19.4577285  82.3765592  80.5690519  21.2097857
  83.1958481  81.0634598  21.2332694  82.6502400  79.6522487  21.1815424
  77.6300506  74.9028653  21.9090054  78.2759370  74.3927607  22.3977279
  77.4217657  75.6397335  22.4833479  90.1553898  81.9709500  27.4082194
  91.0245058  82.1450153  27.0468829  89.6760650  82.7903917  27.2857924
  89.9656236  65.7611474  11.9159887  89.1988632  65.2069961  12.0616569
  90.3766941  65.8333343  12.7774038  81.9697997  72.0496270  26.0065068
  82.8329459  71.6933075  26.2168393  81.3963408  71.7110165  26.6940472
  94.5279498  85.4576987  26.9995040  94.1346444  84.9043185  27.6742684
  95.3445638  85.7687565  27.3901557  97.4447459  86.8734866  24.5915296
  98.1857172  87.4742019  24.5119759  97.6765382  86.1312504  24.0333339
  92.4727486  89.2478676  23.9399703  93.0999525  88.8655753  24.5537227
  91.6155405  89.0292878  24.3055395  95.7095543  88.5696582  25.6013622
  95.7583698  89.4458705  25.2191392  96.2518057  88.0273975  25.0285265
  96.8355357  90.0079647  27.7893564  96.7352084  90.9574004  27.7205655
  96.6176899  89.6797886  26.9169634  88.4694261  90.2320571  21.9090054
  89.1153124  89.7219525  22.3977279  88.2611412  90.9689252  22.4833479
  92.8091752  87.3788188  26.0065068  93.6723213  87.0224993  26.2168393
  92.2357162  87.0402083  26.6940472  59.5146578  15.3436103  12.2698745
  60.0586482  15.9566062  11.7753699  58.9333422  15.9015682  12.7865758
  62.8375372  14.8032157  11.6060066  62.0470916  14.7856296  11.0664565
  62.6008727  15.3420451  12.3609102  64.4591444  14.0721565   9.1634816
  64.1676252  14.4351546   9.9998277  63.8463575  13.3588573   8.9848148
  57.6372636  12.9895870  14.1327501  58.5063796  13.1636522  13.7714136
  57.1579388  13.8090287  14.0103230  69.2965112  24.6984496   3.5372776
  69.9343522  24.5791243   2.8336116  69.1785955  25.6465340   3.5960728
  66.1054818  24.6511924   3.4734300  65.7673330  24.5352989   2.5854835
  66.9744586  24.2503089   3.4535307  66.5874601  25.8046776   9.4320506
  66.5763242  25.4099574   8.5601010  66.7495241  25.0712848  10.0254277
  63.3081862  28.5883888   8.3799690  63.0171728  29.4929518   8.2646356
  63.9438847  28.6300415   9.0943759  64.2338069  25.9660736   4.9701050
  64.8301641  25.7416759   4.2558012  64.2913041  25.2245482   5.5726497
  74.2514808  22.3611183   1.5158962  74.9839980  21.7910400   1.7496792
  73.4954163  21.9732784   1.9565468  71.7740228  16.0732757   5.9753571
  71.4423553  16.9428168   5.7514786  71.1785841  15.7569041   6.6547601
  68.2671747  28.2745303   5.3749484  67.9672471  29.1770342   5.2665291
  67.9222807  28.0077486   6.2270636  71.6668891  20.7927843   3.0546921
  70.7585769  20.7243252   2.7605682  71.6156487  21.2699788   3.8828746
  63.2492527  35.0389624  -1.6579549  63.1716557  35.9897449  -1.5791068
  62.6454171  34.6935496  -1.0004622  65.7409757  22.2117489  10.9981818
  64.9643091  22.7711409  10.9884683  66.3800320  22.6974272  11.5196688
  73.5330538  18.9944282   4.8324795  72.8904918  19.2876815   4.1864589
  73.0285466  18.8797202   5.6377991  63.9956129  25.0202942  10.5599785
  64.7370814  25.5587986  10.2834609  63.2893115  25.6469231  10.7171337
  69.4711469  27.1632083   9.1571947  69.8794825  26.7214493   8.4126579
  68.7488730  26.5884710   9.4106140  65.8242539  22.1004690   6.5305504
  66.6703734  22.5244103   6.6740153  65.7641177  21.4438314   7.2244067
  69.7940284  27.7233273   2.9124236  69.1649146  27.8878988   2.2100303
  69.4065946  28.1374883   3.6835200  73.6729516  28.6587711   0.2668599
  72.9880554  29.0386613  -0.2834367  73.7573365  29.2683038   1.0000547
  68.9741984  19.7609058   8.1886677  68.7302916  20.5151118   7.6520953
  69.2501915  20.1394405   9.0233924  70.9280447  26.3047670   6.8663943
  71.1397342  26.9479430   6.1898324  70.8810195  25.4709987   6.3985873
  62.2392327  27.0079163   3.1154084  62.8093684  27.4366431   2.4771568
  62.8300438  26.7261748   3.8138270  62.7317493  22.1742590  11.3615095
  62.1016154  22.8558871  11.5950492  62.6253581  22.0625672  10.4168233
  72.0426275  29.1819626   5.0386300  72.8643719  28.7799813   4.7568982
  72.0388678  29.0787860   5.9902416  65.8082878  28.7303669   7.1947011
  65.8727311  29.1924076   8.0305183  65.0993802  28.1001034   7.3229321
  62.0098236  16.4763356  13.7240346  61.6165181  15.9229555  14.3987990
  62.8264376  16.7873935  14.1146864  64.9266197  17.8921235  11.3160603
  65.6675910  18.4928389  11.2365065  65.1584120  17.1498873  10.7578645
  60.0707535  23.0777603   9.5938832  59.9561050  22.1762860   9.8945931
  59.2152053  23.3241299   9.2423649  67.1499373  31.0195343  11.1926333
  66.7063227  30.2331722  10.8747238  67.8116586  31.2074493  10.5270224
  61.9086494  32.5491145   5.7187012  62.4593919  32.4208208   4.9464006
  61.0697970  32.8486034   5.3681904  69.2480611  31.2998143   9.2207734
  69.2299086  32.1207024   8.7288004  70.1700531  31.1752218   9.4457876
  65.7053665  28.8142272  10.0631243  66.2382002  28.0530561   9.8330551
  65.1767746  28.5215924  10.8055397  72.0499223  26.1377285   2.6917101
  71.3922898  26.8276547   2.7797230  72.8539623  26.5273717   3.0351087
  70.8604682  24.4921658   0.7421043  71.3736564  25.1251650   1.2442753
  71.5105906  23.8922854   0.3764403  71.6266478  29.4727659  -1.1299815
  71.1728806  28.6318569  -1.0734624  70.9960445  30.1089058  -0.7925034
  70.0699418  31.3104156  -0.1949996  70.3622392  31.8709213  -0.9137631
  70.5798038  31.6032717   0.5603163  65.0333043  32.0884507   0.8943457
  64.9909222  32.3145354  -0.0348011  65.9495742  31.8547882   1.0429258
  68.4798677  22.5568575   7.7924086  68.8348064  22.7840048   8.6518552
  69.1270808  22.8886952   7.1701341  74.2365793  27.7463538   3.5084687
  74.6702300  27.6538827   4.3567741  74.9497374  27.7221038   2.8704703
  67.9693688  31.3465632   5.0417787  68.0230710  31.9156568   5.8095503
  67.1008470  31.5167517   4.6771824  60.8492082  21.0483188   6.5242238
  61.5215135  20.8400550   5.8754887  60.0221868  20.8505274   6.0847471
  75.0981343  27.7887238   6.0417572  75.2917233  28.6933049   6.2876847
  74.9981961  27.3294657   6.8756157  66.7517654  17.6745129   8.5407899
  66.1045569  18.3735079   8.4472376  67.5218669  18.1081273   8.9084147
  70.1596452  27.9393981  11.6158453  70.0081958  27.7104533  10.6988536
  70.1501131  28.8964583  11.6289798  66.9281788  25.5125894   6.6004719
  67.8573848  25.6637053   6.4273686  66.5072818  25.6009915   5.7453365
  65.7270120  29.5376558   4.3703257  65.5881205  29.1695343   5.2429195
  64.9384716  30.0524198   4.1987214  66.3218272  34.6385655  -4.2871207
  66.4970027  34.1673698  -3.4725584  65.6351060  35.2651421  -4.0589946
  67.2775335  28.9158161   1.7592094  66.9425167  28.8758931   2.6549744
  66.7779281  28.2502877   1.2862505  61.2519579  24.3225791   7.2844676
  61.1139377  23.5906030   7.8856215  62.1624502  24.2334691   7.0028863
  63.8801879  24.0345750   6.7728355  64.5901498  23.3938943   6.7314974
  63.8371188  24.2858645   7.6954536  71.8688658  30.9713104   9.6934934
  71.8101204  30.2872324   9.0265517  72.2708177  31.7132094   9.2415560
  62.5930813  21.0210968   8.5923995  62.0568170  20.5701707   9.2445591
  62.0047522  21.1556877   7.8494459  60.8879357  37.7875018   2.4868653
  61.1275955  38.4193542   3.1647672  60.0448553  37.4363058   2.7734013
  71.8706065  28.9352688   7.9248914  70.9832844  28.5978609   8.0475313
  72.4404616  28.2035719   8.1617679  65.4007219  33.5954140   4.8910157
  65.3277390  34.4009111   5.4029462  64.9584612  33.7946106   4.0658179
  65.1896998  32.8325910  -1.5987021  64.4064520  33.3747590  -1.5048797
  65.8889744  33.3499890  -1.1992780  76.3523406  24.3460905   2.6865476
  76.3413282  25.2285620   2.3159409  75.4840785  23.9932456   2.4920013
  67.8605902  33.4940974   7.0468316  68.5733875  34.1288439   6.9744217
  67.3695931  33.5904840   6.2308318  62.9117816  31.2435417   7.8673887
  63.6127275  31.8771900   8.0203281  62.4412931  31.5850149   7.1069526
  70.7119102  23.7980025   5.6926437  70.0590552  24.0455932   5.0378890
  71.0899482  22.9844163   5.3588914  67.6726276  33.8339718  -0.2045393
  67.8548670  33.0161374   0.2582360  68.4959262  34.0507410  -0.6420503
  68.0068441  32.7607903  -2.9430344  68.5356208  32.2500358  -3.5560182
  68.2696661  32.4450433  -2.0784811  66.7606675  24.5399836  12.1792474
  66.0847312  24.4393965  12.8494849  67.5834309  24.3839050  12.6428471
  58.5085534  30.7771772   4.8004989  59.0938971  30.0315460   4.9332894
  58.3110372  31.0875729   5.6841653  61.3624189  33.8123020  -0.1832568
  60.6934564  34.2969148  -0.6668528  61.2237059  34.0592240   0.7310810
  65.5029458  35.8466763   6.4150090  66.0547766  36.0098385   7.1799175
  65.8435651  36.4371201   5.7430115  59.9546223  20.2665046  10.6645009
  60.5818262  19.8842123  11.2782533  59.0974142  20.0479248  11.0300702
  70.3540332  30.6728021  12.2698745  70.8980236  31.2857979  11.7753699
  69.7727177  31.2307599  12.7865758  68.6397845  33.7948739   3.4013772
  68.5148984  32.9938479   2.8924718  69.2976936  34.2894932   2.9127742
  70.7032753  31.5957759   5.0293322  69.7563089  31.4763110   4.9571649
  71.0515527  30.7080257   5.1119584  63.0632327  17.4851898   8.8531564
  63.5866729  17.7314194   9.6157874  62.8444660  18.3171933   8.4334702
  67.7079187  31.3910475   1.2297675  67.5604149  30.4627183   1.4105245
  68.5332680  31.4130566   0.7454750  71.3113309  32.2139034   2.3162547
  72.2359856  32.0081895   2.1786999  71.1428612  31.9655435   3.2251889
  64.2684872  18.4265593   6.5381235  63.9281692  17.6273406   6.9401915
  63.5623878  18.7267304   5.9658068  66.1562436  19.6273914   4.8934553
  65.8980214  20.5490985   4.8918884  65.6247476  19.2304349   5.5835018
  71.1008625  32.7324701  -2.3275361  71.2745502  32.1671124  -3.0801509
  71.5937516  33.5325596  -2.5095871  56.9185585  24.7439370   5.7388198
  56.3739053  25.5199178   5.8708472  57.7964934  25.0910175   5.5807319
  72.0883797  32.0491466  -5.2278463  72.7834702  32.6698158  -5.0091148
  72.4306947  31.1986817  -4.9526085  57.7051606  23.8709267   8.6318355
  56.9633342  24.0191902   9.2182985  57.3844351  24.1317532   7.7685104
  65.6495269  33.4125245   8.4298745  65.9582396  33.1674392   9.3021444
  66.4470751  33.6171883   7.9417615  65.6715881  35.5663155   0.6604121
  65.2320871  35.0739533   1.3536978  66.4223998  35.0236122   0.4196196
  63.1189753  31.1101164   2.7326423  62.4969763  30.4471869   2.4328651
  63.7894620  31.1362296   2.0500071  63.1914281  19.5882952  12.3258929
  63.2402436  20.4645075  11.9436698  63.7336795  19.0460345  11.7530572
  73.6769126  30.1324075  11.6060066  72.8864670  30.1148214  11.0664565
  73.4402481  30.6712369  12.3609102  73.7967001  26.9816541   8.9192794
  73.8465006  26.8166549   9.8608317  73.6880925  26.1143800   8.5290675
  71.0870764  22.9647469  10.2352101  71.9880627  22.8253934   9.9436099
  71.1618738  23.1301924  11.1750279  65.4213569  20.3414324   9.0805287
  64.5516879  20.6347890   8.8087876  65.6573050  20.9254769   9.8012551
  75.2985198  29.4013483   9.1634816  75.0070007  29.7643463   9.9998277
  74.6857330  28.6880491   8.9848148  76.4980881  26.9666363   1.6837386
  77.3327772  27.4056167   1.8474947  76.6340009  26.4905016   0.8645632
  73.5472387  24.5246097   7.6314874  74.0226508  24.7173744   6.8233725
  72.6237952  24.5805283   7.3858258  68.1252603  16.5593941   6.5970708
  68.6434547  17.2954968   6.2717196  67.7707736  16.8657934   7.4317467
  72.2474056  21.4011858   5.8643180  73.1991478  21.5009955   5.8855404
  72.0777506  20.6090126   6.3741264  70.2688435  18.4867441   6.0502580
  69.6738367  18.7672454   5.3549069  69.9838132  18.9761342   6.8219322
  74.7262133  24.6217977   4.9785479  74.6938453  23.6833978   5.1645163
  75.3362757  24.7002014   4.2451304  74.8756622  21.4129021   5.0243762
  74.3595670  20.6287477   4.8373691  75.7596570  21.0847737   5.1890282
  80.5438683  25.6833984   4.1191516  81.2742072  25.4219272   4.6799219
  79.9345629  24.9462706   4.1593584  78.6253980  23.8241847   4.7165967
  77.8987144  23.6897812   4.1082459  78.2101267  24.1318675   5.5222685
  66.4484157  27.5431776  12.4813340  67.3687166  27.7210375  12.6753387
  66.4133740  26.5987822  12.3293039  59.4446229  25.4532811   5.1236121
  59.6632239  26.3849919   5.1424155  59.8572003  25.0940785   5.9090925
  64.3174095  21.0266017  14.5138870  64.2170821  21.9760374  14.4450961
  64.0995637  20.6984256  13.6414940  64.1805365  24.4563156  13.3303932
  63.6972446  25.2563516  13.5367821  64.2666304  24.4671101  12.3771376
  60.1078702  28.3467690   5.3672366  61.0621956  28.3151633   5.3002297
  59.9091226  27.8858314   6.1822592  60.6978084  26.9168806   7.9343163
  61.5170973  27.4112885   7.9578001  60.9714892  26.0000775   7.9060731
  58.4628931  33.8887310   2.3842564  58.3283399  33.1287711   1.8180562
  58.0460993  34.6128210   1.9171352  61.6198057  34.7856627   2.5961006
  61.5030441  35.7302059   2.4939697  60.7990503  34.4830188   2.9846805
  55.9512999  21.2506940   8.6335360  56.5971862  20.7405894   9.1222586
  55.7430150  21.9875622   9.2078786  68.4766391  28.3187788  14.1327501
  69.3457550  28.4928440  13.7714136  67.9973142  29.1382205  14.0103230
  62.6452571  35.4384889   5.8116935  63.5479818  35.4708499   6.1283430
  62.4189941  34.5085340   5.8263270  64.4006173  34.1915875   2.4727013
  63.4501804  34.1917737   2.3591386  64.7038659  33.4448610   1.9563048
  60.2910490  18.3974557  12.7310375  61.1541951  18.0411362  12.9413699
  59.7175900  18.0588452  13.4185779  80.1358866  40.0276414   3.5372776
  80.7737276  39.9083161   2.8336116  80.0179709  40.9757258   3.5960728
  76.9448573  39.9803842   3.4734300  76.6067084  39.8644906   2.5854835
  77.8138341  39.5795007   3.4535307  72.8035388  41.8339318  -0.5368809
  72.2400254  41.7429255  -1.3052521  72.6887783  41.0139223  -0.0566316
  77.4268356  41.1338694   9.4320506  77.4156996  40.7391492   8.5601010
  77.5888995  40.4004766  10.0254277  70.3499820  43.3290510   2.3015412
  71.1421112  42.9881334   1.8861711  70.5896471  43.4385485   3.2217565
  78.3834947  45.5010286  -5.2254344  77.7322927  46.0864366  -5.6120330
  79.1779310  46.0316481  -5.1659306  72.3090574  42.5899423  -4.8267209
  73.0821450  42.0428410  -4.9654334  72.6615973  43.4543672  -4.6152748
  74.1475617  43.9175805   8.3799690  73.8565483  44.8221436   8.2646356
  74.7832601  43.9592333   9.0943759  75.0731824  41.2952654   4.9701050
  75.6695396  41.0708676   4.2558012  75.1306795  40.5537399   5.5726497
  74.6456852  38.7492089  -7.1948759  74.8982373  38.2273610  -7.9565296
  73.7081411  38.5858235  -7.0922076  79.6900135  37.7527868   0.6125984
  80.4763224  37.3347291   0.2616401  79.9538839  38.6573960   0.7807632
  79.8610212  43.1900718  -4.6885359  79.2256045  43.2635344  -3.9764455
  79.5307619  43.7794317  -5.3666280  85.0908562  37.6903101   1.5158962
  85.8233734  37.1202318   1.7496792  84.3347918  37.3024701   1.9565468
  74.3653141  40.6520195  -4.9924385  74.2489399  39.9765099  -4.3243300
  74.4755401  40.1652569  -5.8092231  76.7084682  40.1130342  -1.2877695
  76.3442889  39.5860963  -0.5764774  77.5651798  39.7228811  -1.4611210
  82.6133982  31.4024675   5.9753571  82.2817307  32.2720086   5.7514786
  82.0179596  31.0860959   6.6547601  79.1065502  43.6037221   5.3749484
  78.8066225  44.5062260   5.2665291  78.7616561  43.3369404   6.2270636
  72.5577983  40.0551018   1.4086188  71.6328480  39.9227232   1.6163880
  72.8062397  40.8345237   1.9056130  82.5062646  36.1219761   3.0546921
  81.5979523  36.0535169   2.7605682  82.4550242  36.5991706   3.8828746
  76.3279390  37.5977899  -5.3069680  76.2079015  38.0434950  -4.4684200
  75.6331978  37.9463217  -5.8656142  69.9186794  39.6984291   2.2429977
  70.0479176  39.9518770   3.1569389  69.2384246  40.2911999   1.9234632
  74.0886282  50.3681541  -1.6579549  74.0110311  51.3189366  -1.5791068
  73.4847925  50.0227414  -1.0004622  76.5803511  37.5409407  10.9981818
  75.8036846  38.1003327  10.9884683  77.2194075  38.0266190  11.5196688
  84.3724292  34.3236199   4.8324795  83.7298672  34.6168733   4.1864589
  83.8679221  34.2089120   5.6377991  74.8349884  40.3494860  10.5599785
  75.5764568  40.8879904  10.2834609  74.1286869  40.9761149  10.7171337
  80.3105223  42.4924000   9.1571947  80.7188579  42.0506411   8.4126579
  79.5882485  41.9176628   9.4106140  76.6636293  37.4296607   6.5305504
  77.5097489  37.8536021   6.6740153  76.6034931  36.7730232   7.2244067
  80.6334038  43.0525191   2.9124236  80.0042901  43.2170905   2.2100303
  80.2459700  43.4666801   3.6835200  84.5123270  43.9879629   0.2668599
  83.8274308  44.3678530  -0.2834367  84.5967119  44.5974956   1.0000547
  79.8135739  35.0900976   8.1886677  79.5696671  35.8443036   7.6520953
  80.0895669  35.4686323   9.0233924  81.7674202  41.6339588   6.8663943
  81.9791097  42.2771348   6.1898324  81.7203950  40.8001904   6.3985873
  79.3700431  34.2457409   3.7700515  78.5084910  34.5438662   4.0617253
  79.3962865  34.4627807   2.8381548  76.1862000  42.7899599   0.1774321
  76.6500346  43.0687302  -0.6121057  75.9218798  41.8883044  -0.0052589
  73.0786081  42.3371081   3.1154084  73.6487438  42.7658349   2.4771568
  73.6694193  42.0553665   3.8138270  75.1230886  38.9122752  -3.0136114
  75.8254929  39.3643795  -2.5462188  74.7911515  38.2706570  -2.3856221
  73.5711248  37.5034508  11.3615095  72.9409908  38.1850789  11.5950492
  73.4647335  37.3917590  10.4168233  68.8656220  37.1706304   2.2881019
  68.0755274  37.4263833   1.8121130  69.3567467  37.9854642   2.3933060
  82.8820030  44.5111543   5.0386300  83.7037473  44.1091731   4.7568982
  82.8782432  44.4079778   5.9902416  70.8170965  37.5350883  -0.7535504
  70.0202129  37.6469578  -0.2352008  70.5896558  37.8737536  -1.6194613
  76.6476633  44.0595587   7.1947011  76.7121066  44.5215994   8.0305183
  75.9387557  43.4292952   7.3229321  67.1493923  37.4236795   4.7196010
  67.4001961  38.3083805   4.9853586  67.6853471  37.2441396   3.9471102
  76.3624651  45.7263694  -2.9374009  76.2270325  46.5715230  -2.5089161
  76.9034463  45.9282972  -3.7008075  72.8491990  31.8055274  13.7240346
  72.4558936  31.2521473  14.3987990  73.6658131  32.1165852  14.1146864
  69.8154048  43.2439132  -2.3646084  70.3278569  44.0382382  -2.2140519
  70.4676761  42.5465423  -2.4312482  71.6248933  46.3604888  -0.2823331
  71.8015561  47.2822853  -0.4702347  72.4205766  46.0463308   0.1471049
  75.7659951  33.2213153  11.3160603  76.5069665  33.8220306  11.2365065
  75.9977874  32.4790791  10.7578645  70.9101289  38.4069520   9.5938832
  70.7954804  37.5054778   9.8945931  70.0545807  38.6533217   9.2423649
  77.9893127  46.3487261  11.1926333  77.5456981  45.5623639  10.8747238
  78.6510341  46.5366411  10.5270224  72.7480248  47.8783062   5.7187012
  73.2987673  47.7500126   4.9464006  71.9091724  48.1777951   5.3681904
  80.0874365  46.6290061   9.2207734  80.0692840  47.4498942   8.7288004
  81.0094285  46.5044136   9.4457876  76.5447419  44.1434190  10.0631243
  77.0775756  43.3822478   9.8330551  76.0161500  43.8507842  10.8055397
  79.7117114  29.2494256   5.5924884  79.3681384  30.1395898   5.5163995
  80.0796077  29.0595914   4.7294469  67.7802965  41.5727786  -1.5886513
  68.6178187  41.9824795  -1.8052806  67.9581233  40.6327229  -1.6186319
  77.2614508  34.0852568  -0.8417442  76.4056104  33.6959418  -1.0211803
  77.6741460  34.1644529  -1.7017657  78.7913655  31.6198911   3.5574118
  78.2878450  31.5829046   2.7441923  79.0844261  32.5291654   3.6170774
  75.0356540  31.7037641   2.5640299  75.9009537  31.5080450   2.2046189
  75.1034049  31.4747993   3.4909656  77.9100132  43.2720183  -2.4249945
  77.3821494  42.5372942  -2.7376708  77.4087635  44.0494859  -2.6709977
  82.8892978  41.4669203   2.6917101  82.2316652  42.1568464   2.7797230
  83.6933377  41.8565635   3.0351087  72.6418860  33.9339849  -0.0643334
  73.2162611  33.7115030  -0.7970141  73.2289842  34.0028543   0.6885268
  81.6998437  39.8213576   0.7421043  82.2130319  40.4543568   1.2442753
  82.3499661  39.2214771   0.3764403  72.9688447  35.9644310  -6.0447448
  72.1325759  36.3018996  -5.7238174  72.8293216  35.8293290  -6.9820311
  74.9441527  30.8081098  -1.3368264  74.2905940  30.4930115  -1.9611650
  74.9022001  30.1856838  -0.6108441  78.1779268  37.2963031   2.9879383
  77.2601829  37.5177978   2.8301071  78.5939411  37.3709342   2.1291091
  78.9614315  38.6954447  -1.8817936  79.7086134  39.2075844  -2.1910814
  79.2305905  38.3738500  -1.0213543  77.2340966  41.1912988  -4.8990982
  76.3252185  40.9072020  -4.8018512  77.2636049  41.6112066  -5.7587675
  82.4660233  44.8019577  -1.1299815  82.0122560  43.9610487  -1.0734624
  81.8354200  45.4380976  -0.7925034  81.4093153  35.7311563   0.1000853
  80.6715909  35.2188949   0.4311095  81.6619926  35.2911945  -0.7115870
  80.9093172  46.6396074  -0.1949996  81.2016147  47.2001131  -0.9137631
  81.4191793  46.9324635   0.5603163  67.8029136  38.9118502  -0.9175780
  67.6053536  38.3187863  -1.6424713  67.2475800  38.6070712  -0.1999841
  75.7825860  38.8041608   1.2018813  75.8374469  37.8515445   1.1261290
  74.9717062  38.9601047   1.6860112  76.9317053  42.7321731  -7.5602904
  76.4936483  42.0157590  -8.0197266  77.6727494  42.9597846  -8.1217812
  73.7218220  37.4218668  -1.0390808  72.9086085  37.7212839  -0.6325616
  74.2177214  37.0274357  -0.3216326  75.8726797  47.4176425   0.8943457
  75.8302976  47.6437271  -0.0348011  76.7889496  47.1839800   1.0429258
  79.3192431  37.8860492   7.7924086  79.6741819  38.1131966   8.6518552
  79.9664562  38.2178869   7.1701341  73.2132294  34.9937024   4.5770427
  73.8531674  34.8525783   3.8793390  72.3809825  34.7071537   4.2009029
  85.0759548  43.0755455   3.5084687  85.5096054  42.9830744   4.3567741
  85.7891128  43.0512956   2.8704703  73.9892598  44.2939454   0.6905420
  74.7833197  43.7989774   0.4887994  73.2784291  43.7657317   0.3273125
  78.8087443  46.6757549   5.0417787  78.8624465  47.2448486   5.8095503
  77.9402224  46.8459435   4.6771824  70.2975362  38.4382536  -3.2334828
  69.3672950  38.3766991  -3.0164866  70.3932834  37.9158488  -4.0298187
  70.2160911  34.9637349  -0.6456586  70.4767728  35.8782682  -0.7547426
  71.0378083  34.4961791  -0.4959973  71.6885836  36.3775106   6.5242238
  72.3608889  36.1692468   5.8754887  70.8615623  36.1797192   6.0847471
  85.9375097  43.1179156   6.0417572  86.1310987  44.0224967   6.2876847
  85.8375715  42.6586575   6.8756157  77.5911408  33.0037047   8.5407899
  76.9439323  33.7026996   8.4472376  78.3612423  33.4373191   8.9084147
  80.9990206  43.2685899  11.6158453  80.8475712  43.0396450  10.6988536
  80.9894885  44.2256500  11.6289798  77.7675542  40.8417812   6.6004719
  78.6967602  40.9928971   6.4273686  77.3466572  40.9301832   5.7453365
  76.5663874  44.8668476   4.3703257  76.4274960  44.4987260   5.2429195
  75.7778470  45.3816115   4.1987214  77.1612026  49.9677572  -4.2871207
  77.3363782  49.4965616  -3.4725584  76.4744814  50.5943339  -4.0589946
  78.1169089  44.2450079   1.7592094  77.7818922  44.2050849   2.6549744
  77.6173035  43.5794795   1.2862505  72.0913333  39.6517709   7.2844676
  71.9533131  38.9197948   7.8856215  73.0018257  39.5626609   7.0028863
  74.7195634  39.3637668   6.7728355  75.4295252  38.7230860   6.7314974
  74.6764942  39.6150563   7.6954536  82.7082413  46.3005021   9.6934934
  82.6494959  45.6164241   9.0265517  83.1101931  47.0424011   9.2415560
  73.4324568  36.3502886   8.5923995  72.8961925  35.8993624   9.2445591
  72.8441276  36.4848795   7.8494459  71.7273111  53.1166935   2.4868653
  71.9669710  53.7485459   3.1647672  70.8842308  52.7654975   2.7734013
  82.7099820  44.2644605   7.9248914  81.8226599  43.9270527   8.0475313
  83.2798371  43.5327637   8.1617679  64.3628967  40.5968697   1.2491965
  65.0500007  40.2830427   0.6612981  64.2077096  41.5010062   0.9759217
  69.1663689  35.4858894   5.6776989  69.0821878  34.8784563   4.9427399
  68.3446396  35.9767912   5.6786485  76.2400973  48.9246058   4.8910157
  76.1671145  49.7301029   5.4029462  75.7978366  49.1238023   4.0658179
  76.0290753  48.1617828  -1.5987021  75.2458275  48.7039508  -1.5048797
  76.7283498  48.6791807  -1.1992780  79.3387403  33.9712457   1.0447184
  79.8356103  33.2182419   0.7248254  78.5674385  34.0076774   0.4790394
  87.1917160  39.6752823   2.6865476  87.1807037  40.5577538   2.3159409
  86.3234540  39.3224373   2.4920013  78.6999657  48.8232892   7.0468316
  79.4127629  49.4580356   6.9744217  78.2089685  48.9196758   6.2308318
  80.4217184  42.7284144  -1.3814392  79.4873462  42.8485607  -1.5509688
  80.5993852  41.8256611  -1.6454383  75.9222372  36.1129840   0.7718869
  75.5520159  35.5600880   1.4599774  76.4181464  35.5087974   0.2193869
  83.8089735  38.5701464  -0.8464358  84.2750187  39.4029455  -0.9204056
  84.2597236  38.1046445  -0.1419100  73.7511570  46.5727335   7.8673887
  74.4521030  47.2063818   8.0203281  73.2806685  46.9142067   7.1069526
  81.8765966  44.9145285  -3.8478206  82.1525810  44.8001879  -2.9384332
  81.0070465  44.5162770  -3.8866033  81.7806398  30.9382051   3.1926543
  80.8669478  31.1686277   3.3608750  82.2099499  31.0220495   4.0440575
  81.5512856  39.1271943   5.6926437  80.8984307  39.3747850   5.0378890
  81.9293236  38.3136081   5.3588914  78.5120030  49.1631636  -0.2045393
  78.6942425  48.3453292   0.2582360  79.3353016  49.3799328  -0.6420503
  78.8462196  48.0899821  -2.9430344  79.3749962  47.5792275  -3.5560182
  79.1090415  47.7742351  -2.0784811  77.6000429  39.8691754  12.1792474
  76.9241066  39.7685883  12.8494849  78.4228063  39.7130967  12.6428471
  69.3479288  46.1063690   4.8004989  69.9332725  45.3607378   4.9332894
  69.1504127  46.4167647   5.6841653  72.2017944  49.1414938  -0.1832568
  71.5328319  49.6261065  -0.6668528  72.0630813  49.3884158   0.7310810
  63.9396943  38.6769290   3.5209433  63.9781043  38.1432881   4.3146551
  63.4337236  38.1504496   2.9020410  76.3423212  51.1758681   6.4150090
  76.8941520  51.3390303   7.1799175  76.6829406  51.7663119   5.7430115
  71.3187705  33.5233831   7.0171975  71.3829032  34.3848662   6.6049373
  71.2554826  32.9107833   6.2844333  70.7939978  35.5956963  10.6645009
  71.4212017  35.2134041  11.2782533  69.9367897  35.3771165  11.0300702
  81.1934087  46.0019939  12.2698745  81.7373991  46.6149897  11.7753699
  80.6120931  46.5599517  12.7865758  67.5705521  37.4033393  -3.4036636
  67.8658962  36.4944071  -3.4569582  66.6693557  37.3821132  -3.7255634
  79.4791600  49.1240657   3.4013772  79.3542739  48.3230396   2.8924718
  80.1370691  49.6186850   2.9127742  71.0999768  35.4789389   2.5790913
  70.3786353  36.0925357   2.4398386  71.8893024  36.0147154   2.5007559
  81.5426508  46.9249677   5.0293322  80.5956843  46.8055028   4.9571649
  81.8909281  46.0372175   5.1119584  73.9026081  32.8143816   8.8531564
  74.4260483  33.0606112   9.6157874  73.6838415  33.6463850   8.4334702
  69.2993362  35.0847490  -3.2797311  68.9706068  34.2044869  -3.4622205
  69.6532733  35.0295159  -2.3920922  78.5472941  46.7202393   1.2297675
  78.3997904  45.7919100   1.4105245  79.3726435  46.7422484   0.7454750
  72.4135185  35.3720460  -2.9121833  72.7531258  35.9006381  -3.6343225
  72.8607306  35.7100866  -2.1363267  82.1507063  47.5430952   2.3162547
  83.0753611  47.3373813   2.1786999  81.9822366  47.2947353   3.2251889
  75.1078626  33.7557511   6.5381235  74.7675447  32.9565324   6.9401915
  74.4017633  34.0559222   5.9658068  75.7595098  30.8406823   4.9908558
  76.5821167  30.3667301   4.8687448  76.0033162  31.6197307   5.4907244
  74.4003333  33.8695082  -4.7128540  75.1211695  34.2476334  -5.2164824
  73.7768637  34.5883958  -4.6093562  73.2833677  37.5325944   2.8000536
  73.1378258  37.8466247   3.6924818  72.8058881  38.1510844   2.2471435
  75.1430060  34.5228492   2.8481426  75.1291629  33.6269585   2.5113724
  75.8602488  34.5299156   3.4819712  76.9956190  34.9565832   4.8934553
  76.7373968  35.8782903   4.8918884  76.4641231  34.5596267   5.5835018
  81.9402379  48.0616619  -2.3275361  82.1139257  47.4963042  -3.0801509
  82.4331270  48.8617514  -2.5095871  67.7579339  40.0731288   5.7388198
  67.2132807  40.8491096   5.8708472  68.6358689  40.4202093   5.5807319
  74.5466956  33.4042872  -1.8831004  74.6682867  32.4759518  -1.6840116
  74.2568998  33.4181558  -2.7952688  77.4158146  31.0897782   1.2535716
  77.4379843  31.1537116   0.2987696  77.8326205  30.2502291   1.4476222
  68.5445361  39.2001184   8.6318355  67.8027097  39.3483820   9.2182985
  68.2238105  39.4609450   7.7685104  76.4889024  48.7417163   8.4298745
  76.7976150  48.4966309   9.3021444  77.2864506  48.9463801   7.9417615
  76.5109636  50.8955072   0.6604121  76.0714626  50.4031451   1.3536978
  77.2617753  50.3528040   0.4196196  68.9901975  47.0866613   0.6628749
  69.8159994  46.7870385   0.2827393  68.6396027  46.3174236   1.1118538
  73.9583508  46.4393081   2.7326423  73.3363517  45.7763786   2.4328651
  74.6288375  46.4654213   2.0500071  67.1910580  45.0052940   1.6217683
  66.3542488  44.5775114   1.4401684  67.1634225  45.1985383   2.5588474
  74.0308035  34.9174869  12.3258929  74.0796191  35.7936992  11.9436698
  74.5730549  34.3752262  11.7530572  84.5162881  45.4615993  11.6060066
  83.7258425  45.4440132  11.0664565  84.2796235  46.0004286  12.3609102
  84.6360756  42.3108459   8.9192794  84.6858761  42.1458466   9.8608317
  84.5274679  41.4435718   8.5290675  73.5197015  44.9897005  -3.7915117
  73.6685135  45.6732469  -4.4448444  74.3263458  44.9702095  -3.2765661
  81.9264518  38.2939387  10.2352101  82.8274381  38.1545852   9.9436099
  82.0012493  38.4593842  11.1750279  76.2607324  35.6706242   9.0805287
  75.3910633  35.9639808   8.8087876  76.4966804  36.2546687   9.8012551
  86.1378953  44.7305401   9.1634816  85.8463761  45.0935381   9.9998277
  85.5251084  44.0172409   8.9848148  87.3374635  42.2958280   1.6837386
  88.1721527  42.7348084   1.8474947  87.4733764  41.8196934   0.8645632
  84.3866141  39.8538015   7.6314874  84.8620263  40.0465661   6.8233725
  83.4631706  39.9097201   7.3858258  71.2749648  41.0162182  -2.7854048
  71.0295690  40.1124512  -2.5873838  71.4445562  41.0179333  -3.7274570
  78.9646358  31.8885859   6.5970708  79.4828301  32.6246886   6.2717196
  78.6101490  32.1949852   7.4317467  70.5445295  36.7490540  -5.2867886
  69.8514540  36.8234895  -5.9427850  70.2997047  35.9850884  -4.7646369
  79.2158952  28.3086141   2.1171604  79.4960705  27.6409330   2.7432031
  80.0009559  28.5015237   1.6046268  77.0192420  47.4845135  -6.3203369
  76.4466387  48.1035322  -6.7732897  77.5925214  48.0344497  -5.7863447
  83.0867810  36.7303775   5.8643180  84.0385233  36.8301873   5.8855404
  82.9171260  35.9382044   6.3741264  81.1082190  33.8159358   6.0502580
  80.5132122  34.0964371   5.3549069  80.8231886  34.3053259   6.8219322
  80.2389680  47.7682285  -5.1894787  81.1720353  47.7027847  -4.9861911
  80.1512893  48.6038552  -5.6480254  85.5655888  39.9509895   4.9785479
  85.5332208  39.0125896   5.1645163  86.1756511  40.0293932   4.2451304
  85.7150376  36.7420938   5.0243762  85.1989425  35.9579395   4.8373691
  86.5990325  36.4139655   5.1890282  91.3832438  41.0125902   4.1191516
  92.1135826  40.7511190   4.6799219  90.7739383  40.2754624   4.1593584
  89.4647735  39.1533764   4.7165967  88.7380898  39.0189729   4.1082459
  89.0495022  39.4610593   5.5222685  77.2877911  42.8723694  12.4813340
  78.2080921  43.0502293  12.6753387  77.2527494  41.9279739  12.3293039
  66.5060076  38.0662288   1.4066615  66.1862861  37.2127596   1.1140989
  65.9593504  38.2810866   2.1624582  70.2839984  40.7824729   5.1236121
  70.5025994  41.7141837   5.1424155  70.6965758  40.4232703   5.9090925
  75.1567849  36.3557934  14.5138870  75.0564576  37.3052291  14.4450961
  74.9389391  36.0276173  13.6414940  66.3748336  41.6865199   3.3759736
  65.6811808  41.2719152   2.8629691  67.1221327  41.7285736   2.7793155
  75.0199119  39.7855073  13.3303932  74.5366201  40.5855433  13.5367821
  75.1060058  39.7963018  12.3771376  68.2885079  41.6183453   1.2525751
  68.2655767  41.7171140   0.3007634  68.5985715  42.4648604   1.5742917
  70.9472457  43.6759608   5.3672366  71.9015710  43.6443550   5.3002297
  70.7484980  43.2150232   6.1822592  71.5371839  42.2460724   7.9343163
  72.3564728  42.7404803   7.9578001  71.8108646  41.3292692   7.9060731
  69.3022685  49.2179228   2.3842564  69.1677153  48.4579628   1.8180562
  68.8854748  49.9420127   1.9171352  81.2679459  40.1526012  -2.4878591
  81.2114660  40.6094564  -3.3270959  81.8207801  39.3916697  -2.6655748
  72.4591811  50.1148545   2.5961006  72.3424195  51.0593977   2.4939697
  71.6384258  49.8122106   2.9846805  66.7906753  36.5798858   8.6335360
  67.4365617  36.0697812   9.1222586  66.5823904  37.3167540   9.2078786
  79.3160145  43.6479705  14.1327501  80.1851305  43.8220358  13.7714136
  78.8366897  44.4674122  14.0103230  73.4846325  50.7676806   5.8116935
  74.3873572  50.8000417   6.1283430  73.2583695  49.8377257   5.8263270
  75.2399927  49.5207793   2.4727013  74.2895558  49.5209655   2.3591386
  75.5432414  48.7740528   1.9563048  71.1304244  33.7266475  12.7310375
  71.9935706  33.3703280  12.9413699  70.5569655  33.3880370  13.4185779
  90.9752621  55.3568331   3.5372776  91.6131031  55.2375079   2.8336116
  90.8573464  56.3049175   3.5960728  87.7842327  55.3095759   3.4734300
  87.4460839  55.1936824   2.5854835  88.6532095  54.9086925   3.4535307
  88.2662110  56.4630611   9.4320506  88.2550751  56.0683409   8.5601010
  88.4282750  55.7296684  10.0254277  81.1893575  58.6582427   2.3015412
  81.9814867  58.3173252   1.8861711  81.4290225  58.7677403   3.2217565
  84.9869371  59.2467723   8.3799690  84.6959237  60.1513354   8.2646356
  85.6226356  59.2884251   9.0943759  85.9125578  56.6244572   4.9701050
  86.5089150  56.4000594   4.2558012  85.9700550  55.8829317   5.5726497
  93.4527737  46.7316593   5.9753571  93.1211062  47.6012003   5.7514786
  92.8573350  46.4152877   6.6547601  89.9459256  58.9329139   5.3749484
  89.6459980  59.8354177   5.2665291  89.6010316  58.6661322   6.2270636
  83.3971738  55.3842935   1.4086188  82.4722234  55.2519149   1.6163880
  83.6456151  56.1637155   1.9056130  93.3456400  51.4511679   3.0546921
  92.4373278  51.3827087   2.7605682  93.2943996  51.9283624   3.8828746
  80.7580549  55.0276209   2.2429977  80.8872930  55.2810688   3.1569389
  80.0778000  55.6203917   1.9234632  87.4197266  52.8701324  10.9981818
  86.6430600  53.4295244  10.9884683  88.0587829  53.3558107  11.5196688
  95.2118047  49.6528117   4.8324795  94.5692427  49.9460650   4.1864589
  94.7072975  49.5381037   5.6377991  85.6743638  55.6786778  10.5599785
  86.4158323  56.2171822  10.2834609  84.9680624  56.3053066  10.7171337
  91.1498978  57.8215918   9.1571947  91.5582334  57.3798329   8.4126579
  90.4276239  57.2468546   9.4106140  87.5030048  52.7588525   6.5305504
  88.3491243  53.1827938   6.6740153  87.4428686  52.1022149   7.2244067
  90.6529493  50.4192893   8.1886677  90.4090425  51.1734954   7.6520953
  90.9289424  50.7978241   9.0233924  92.6067956  56.9631506   6.8663943
  92.8184851  57.6063266   6.1898324  92.5597704  56.1293822   6.3985873
  90.2094185  49.5749326   3.7700515  89.3478664  49.8730580   4.0617253
  90.2356620  49.7919725   2.8381548  83.9179836  57.6662998   3.1154084
  84.4881193  58.0950267   2.4771568  84.5087947  57.3845583   3.8138270
  84.4105002  52.8326426  11.3615095  83.7803663  53.5142707  11.5950492
  84.3041090  52.7209507  10.4168233  79.7049974  52.4998222   2.2881019
  78.9149028  52.7555750   1.8121130  80.1961222  53.3146560   2.3933060
  81.6564720  52.8642801  -0.7535504  80.8595883  52.9761495  -0.2352008
  81.4290312  53.2029453  -1.6194613  87.4870387  59.3887504   7.1947011
  87.5514820  59.8507912   8.0305183  86.7781311  58.7584869   7.3229321
  77.9887677  52.7528712   4.7196010  78.2395716  53.6375722   4.9853586
  78.5247226  52.5733314   3.9471102  83.6885745  47.1347192  13.7240346
  83.2952690  46.5813390  14.3987990  84.5051885  47.4457770  14.1146864
  86.6053706  48.5505071  11.3160603  87.3463419  49.1512224  11.2365065
  86.8371629  47.8082709  10.7578645  81.7495044  53.7361438   9.5938832
  81.6348559  52.8346695   9.8945931  80.8939562  53.9825135   9.2423649
  88.8286882  61.6779178  11.1926333  88.3850736  60.8915557  10.8747238
  89.4904095  61.8658329  10.5270224  83.5874003  63.2074980   5.7187012
  84.1381428  63.0792043   4.9464006  82.7485479  63.5069869   5.3681904
  90.9268120  61.9581978   9.2207734  90.9086595  62.7790859   8.7288004
  91.8488040  61.8336053   9.4457876  87.3841174  59.4726108  10.0631243
  87.9169511  58.7114396   9.8330551  86.8555255  59.1799760  10.8055397
  90.5510869  44.5786174   5.5924884  90.2075138  45.4687815   5.5163995
  90.9189831  44.3887831   4.7294469  88.1008262  49.4144486  -0.8417442
  87.2449859  49.0251336  -1.0211803  88.5135214  49.4936446  -1.7017657
  89.6307409  46.9490829   3.5574118  89.1272205  46.9120964   2.7441923
  89.9238016  47.8583572   3.6170774  85.8750295  47.0329559   2.5640299
  86.7403292  46.8372367   2.2046189  85.9427804  46.8039910   3.4909656
  83.4812614  49.2631767  -0.0643334  84.0556366  49.0406948  -0.7970141
  84.0683596  49.3320461   0.6885268  85.7835282  46.1373015  -1.3368264
  85.1299694  45.8222033  -1.9611650  85.7415756  45.5148756  -0.6108441
  89.0173022  52.6254949   2.9879383  88.0995584  52.8469896   2.8301071
  89.4333166  52.7001259   2.1291091  78.6422890  54.2410419  -0.9175780
  78.4447290  53.6479780  -1.6424713  78.0869554  53.9362630  -0.1999841
  86.6219614  54.1333526   1.2018813  86.6768224  53.1807362   1.1261290
  85.8110816  54.2892965   1.6860112  84.5611974  52.7510586  -1.0390808
  83.7479840  53.0504756  -0.6325616  85.0570968  52.3566274  -0.3216326
  90.1586186  53.2152410   7.7924086  90.5135573  53.4423883   8.6518552
  90.8058317  53.5470787   7.1701341  84.0526049  50.3228941   4.5770427
  84.6925428  50.1817700   3.8793390  83.2203579  50.0363455   4.2009029
  81.0554665  50.2929266  -0.6456586  81.3161483  51.2074599  -0.7547426
  81.8771838  49.8253709  -0.4959973  82.5279591  51.7067023   6.5242238
  83.2002644  51.4984386   5.8754887  81.7009377  51.5089109   6.0847471
  88.4305163  48.3328964   8.5407899  87.7833078  49.0318914   8.4472376
  89.2006178  48.7665108   8.9084147  91.8383960  58.5977816  11.6158453
  91.6869467  58.3688368  10.6988536  91.8288640  59.5548418  11.6289798
  88.6069297  56.1709729   6.6004719  89.5361357  56.3220889   6.4273686
  88.1860327  56.2593750   5.7453365  87.4057629  60.1960394   4.3703257
  87.2668714  59.8279178   5.2429195  86.6172225  60.7108033   4.1987214
  82.9307088  54.9809626   7.2844676  82.7926886  54.2489865   7.8856215
  83.8412011  54.8918526   7.0028863  85.5589388  54.6929586   6.7728355
  86.2689007  54.0522778   6.7314974  85.5158697  54.9442481   7.6954536
  93.5476167  61.6296939   9.6934934  93.4888713  60.9456159   9.0265517
  93.9495686  62.3715929   9.2415560  84.2718322  51.6794804   8.5923995
  83.7355679  51.2285542   9.2445591  83.6835031  51.8140712   7.8494459
  93.5493574  59.5936523   7.9248914  92.6620353  59.2562445   8.0475313
  94.1192125  58.8619554   8.1617679  75.2022722  55.9260615   1.2491965
  75.8893761  55.6122345   0.6612981  75.0470850  56.8301979   0.9759217
  80.0057444  50.8150811   5.6776989  79.9215632  50.2076481   4.9427399
  79.1840150  51.3059830   5.6786485  90.1781158  49.3004375   1.0447184
  90.6749857  48.5474337   0.7248254  89.4068139  49.3368691   0.4790394
  86.7616126  51.4421758   0.7718869  86.3913914  50.8892798   1.4599774
  87.2575219  50.8379891   0.2193869  84.5905325  61.9019253   7.8673887
  85.2914784  62.5355736   8.0203281  84.1200440  62.2433984   7.1069526
  92.6200152  46.2673968   3.1926543  91.7063232  46.4978195   3.3608750
  93.0493254  46.3512412   4.0440575  92.3906611  54.4563860   5.6926437
  91.7378061  54.7039768   5.0378890  92.7686991  53.6427998   5.3588914
  88.4394184  55.1983671  12.1792474  87.7634821  55.0977801  12.8494849
  89.2621818  55.0422885  12.6428471  80.1873043  61.4355608   4.8004989
  80.7726480  60.6899296   4.9332894  79.9897881  61.7459565   5.6841653
  74.7790698  54.0061208   3.5209433  74.8174797  53.4724799   4.3146551
  74.2730990  53.4796414   2.9020410  82.1581460  48.8525749   7.0171975
  82.2222786  49.7140579   6.6049373  82.0948580  48.2399750   6.2844333
  81.6333732  50.9248881  10.6645009  82.2605771  50.5425958  11.2782533
  80.7761651  50.7063083  11.0300702  92.0327841  61.3311856  12.2698745
  92.5767745  61.9441815  11.7753699  91.4514686  61.8891435  12.7865758
  78.4099275  52.7325310  -3.4036636  78.7052716  51.8235989  -3.4569582
  77.5087311  52.7113050  -3.7255634  81.9393522  50.8081307   2.5790913
  81.2180108  51.4217274   2.4398386  82.7286778  51.3439072   2.5007559
  84.7419836  48.1435733   8.8531564  85.2654238  48.3898030   9.6157874
  84.5232169  48.9755768   8.4334702  80.1387117  50.4139408  -3.2797311
  79.8099823  49.5336787  -3.4622205  80.4926488  50.3587077  -2.3920922
  85.9472381  49.0849428   6.5381235  85.6069201  48.2857241   6.9401915
  85.2411387  49.3851139   5.9658068  86.5988853  46.1698741   4.9908558
  87.4214922  45.6959219   4.8687448  86.8426916  46.9489225   5.4907244
  84.1227431  52.8617861   2.8000536  83.9772012  53.1758165   3.6924818
  83.6452635  53.4802762   2.2471435  85.9823814  49.8520409   2.8481426
  85.9685383  48.9561503   2.5113724  86.6996242  49.8591073   3.4819712
  87.8349945  50.2857750   4.8934553  87.5767723  51.2074820   4.8918884
  87.3034985  49.8888184   5.5835018  78.5973094  55.4023206   5.7388198
  78.0526562  56.1783014   5.8708472  79.4752443  55.7494010   5.5807319
  85.3860710  48.7334790  -1.8831004  85.5076621  47.8051436  -1.6840116
  85.0962753  48.7473476  -2.7952688  88.2551901  46.4189700   1.2535716
  88.2773597  46.4829033   0.2987696  88.6719960  45.5794209   1.4476222
  79.3839115  54.5293102   8.6318355  78.6420851  54.6775737   9.2182985
  79.0631860  54.7901368   7.7685104  87.3282778  64.0709080   8.4298745
  87.6369904  63.8258227   9.3021444  88.1258260  64.2755719   7.9417615
  78.0304334  60.3344857   1.6217683  77.1936242  59.9067032   1.4401684
  78.0027980  60.5277301   2.5588474  84.8701790  50.2466787  12.3258929
  84.9189945  51.1228910  11.9436698  85.4124304  49.7044180  11.7530572
  95.3556635  60.7907910  11.6060066  94.5652179  60.7732049  11.0664565
  95.1189990  61.3296204  12.3609102  95.4754510  57.6400377   8.9192794
  95.5252515  57.4750384   9.8608317  95.3668434  56.7727636   8.5290675
  92.7658273  53.6231305  10.2352101  93.6668136  53.4837770   9.9436099
  92.8406247  53.7885760  11.1750279  87.1001078  50.9998159   9.0805287
  86.2304388  51.2931726   8.8087876  87.3360559  51.5838604   9.8012551
  96.9772707  60.0597318   9.1634816  96.6857516  60.4227299   9.9998277
  96.3644839  59.3464327   8.9848148  95.2259896  55.1829933   7.6314874
  95.7014017  55.3757579   6.8233725  94.3025461  55.2389119   7.3858258
  89.8040112  47.2177776   6.5970708  90.3222056  47.9538803   6.2717196
  89.4495245  47.5241770   7.4317467  90.0552706  43.6378059   2.1171604
  90.3354460  42.9701248   2.7432031  90.8403313  43.8307155   1.6046268
  93.9261565  52.0595693   5.8643180  94.8778987  52.1593791   5.8855404
  93.7565015  51.2673961   6.3741264  91.9475944  49.1451276   6.0502580
  91.3525876  49.4256289   5.3549069  91.6625641  49.6345177   6.8219322
  96.5544131  52.0712856   5.0243762  96.0383179  51.2871313   4.8373691
  97.4384079  51.7431573   5.1890282  88.1271666  58.2015612  12.4813340
  89.0474675  58.3794211  12.6753387  88.0921249  57.2571657  12.3293039
  77.3453831  53.3954205   1.4066615  77.0256615  52.5419514   1.1140989
  76.7987259  53.6102784   2.1624582  81.1233738  56.1116646   5.1236121
  81.3419748  57.0433754   5.1424155  81.5359512  55.7524621   5.9090925
  85.9961604  51.6849852  14.5138870  85.8958330  52.6344209  14.4450961
  85.7783146  51.3568091  13.6414940  77.2142091  57.0157117   3.3759736
  76.5205562  56.6011070   2.8629691  77.9615082  57.0577653   2.7793155
  85.8592874  55.1146991  13.3303932  85.3759955  55.9147351  13.5367821
  85.9453813  55.1254936  12.3771376  79.1278833  56.9475371   1.2525751
  79.1049521  57.0463058   0.3007634  79.4379470  57.7940521   1.5742917
  81.7866211  59.0051526   5.3672366  82.7409465  58.9735468   5.3002297
  81.5878735  58.5442149   6.1822592  82.3765593  57.5752642   7.9343163
  83.1958482  58.0696720   7.9578001  82.6502401  56.6584610   7.9060731
  77.6300507  51.9090776   8.6335360  78.2759371  51.3989730   9.1222586
  77.4217659  52.6459457   9.2078786  90.1553900  58.9771623  14.1327501
  91.0245059  59.1512275  13.7714136  89.6760651  59.7966040  14.0103230
  81.9697998  49.0558393  12.7310375  82.8329460  48.6995198  12.9413699
  81.3963409  48.7172288  13.4185779  94.5279499  62.4639109  13.7240346
  94.1346445  61.9105308  14.3987990  95.3445640  62.7749688  14.1146864
  97.4447460  63.8796988  11.3160603  98.1857174  64.4804142  11.2365065
  97.6765383  63.1374626  10.7578645  92.4727487  66.2540799  10.6645009
  93.0999526  65.8717876  11.2782533  91.6155406  66.0355001  11.0300702
  95.7095544  65.5758705  12.3258929  95.7583700  66.4520828  11.9436698
  96.2518058  65.0336098  11.7530572  96.8355358  67.0141770  14.5138870
  96.7352085  67.9636127  14.4450961  96.6176900  66.6860009  13.6414940
  88.4694262  67.2382693   8.6335360  89.1153126  66.7281647   9.1222586
  88.2611413  67.9751375   9.2078786  92.8091753  64.3850310  12.7310375
  93.6723215  64.0287115  12.9413699  92.2357164  64.0464205  13.4185779
   4.2575980  79.1780090  67.7644735   3.5039689  78.6087489  67.6088740
   4.3923522  79.1442755  68.7115370   0.6224593  80.6188079  68.0610850
   1.4571484  81.0577883  68.2248410   0.7583722  80.1426732  67.2419096
   4.6682395  79.3355700  70.4964980   5.3985784  79.0740989  71.0572683
   4.0589341  78.5984422  70.5367048   2.7497693  77.4763563  71.0939431
   2.0230856  77.3419528  70.4855923   2.3344979  77.7840392  71.8996149
   2.6746560  77.0041616  67.2216284   2.1146118  77.0734805  67.9947846
   2.0690064  76.8282601  66.5015780   4.2602579  93.6798130  69.9146239
   4.8980989  93.5604877  69.2109580   4.1423422  94.6278974  69.9734192
   1.0692285  93.6325558  69.8507764   0.7310797  93.5166623  68.9628299
   1.9382053  93.2316723  69.8308770   3.8143847  91.4049584  66.9899447
   4.6006936  90.9869007  66.6389864   4.0782552  92.3095676  67.1581096
   9.2152274  91.3424817  67.8932426   9.9477446  90.7724034  68.1270255
   8.4591630  90.9546417  68.3338932   6.7377695  85.0546391  72.3527035
   6.4061019  85.9241802  72.1288250   6.1423308  84.7382675  73.0321065
   6.6306358  89.7741477  69.4320385   5.7223235  89.7056886  69.1379146
   6.5793954  90.2513422  70.2602210   8.4968004  87.9757916  71.2098259
   7.8542385  88.2690449  70.5638053   7.9922933  87.8610836  72.0151455
   6.1508168  91.7221089  61.8984118   7.0626024  91.9548476  61.7231815
   5.6417815  92.3058133  61.3359196   0.7880006  91.0818324  72.9078967
   1.6341201  91.5057737  73.0513616   0.7278643  90.4251948  73.6017530
   3.9379451  88.7422692  74.5660141   3.6940383  89.4964752  74.0294417
   4.2139382  89.1208039  75.4007388   5.8917914  95.2861304  73.2437407
   6.1034809  95.9293064  72.5671788   5.8447662  94.4523621  72.7759337
   3.4944143  87.8979125  70.1473979   2.6328622  88.1960378  70.4390716
   3.5206577  88.1149524  69.2155011  15.0969735  94.5072008  67.7644735
  14.3433443  93.9379406  67.6088740  15.2317276  94.4734673  68.7115370
   3.8360827  82.9015972  71.9698348   3.4925096  83.7917614  71.8937459
   4.2039789  82.7117630  71.1067933   3.8011109  92.8924583  60.4770783
   3.2857733  93.6629188  60.7159171   3.5288418  92.2189720  61.1003845
   1.3858220  87.7374284  65.5356022   0.5299817  87.3481135  65.3561660
   1.7985172  87.8166245  64.6755807   2.9157367  85.2720627  69.9347581
   2.4122162  85.2350763  69.1215387   3.2087974  86.1813370  69.9944238
   8.7745383  95.6456938  62.4123957   7.9974826  95.3068098  61.9679119
   9.4536864  95.6509561  61.7378922   3.5897412  90.7651676  62.3030564
   3.2847548  91.0797825  63.1540708   4.5427855  90.8433095  62.3457897
   7.0136690  95.1190919  69.0690565   6.3560365  95.8090181  69.1570693
   7.8177089  95.5087351  69.4124551   5.8242149  93.4735292  67.1194507
   6.3374031  94.1065284  67.6216216   6.4743373  92.8736488  66.7537867
   2.3022980  90.9484748  69.3652847   1.3845541  91.1699695  69.2074535
   2.7183124  91.0231058  68.5064554   3.0858028  92.3476163  64.4955527
   3.8329847  92.8597560  64.1862649   3.3549617  92.0260216  65.3559921
   5.5336865  89.3833280  66.4774317   4.7959622  88.8710666  66.8084559
   5.7863638  88.9433661  65.6657593   5.6348492  82.1609532  67.0716086
   5.9407369  81.3006895  66.7842001   6.3601097  82.7527152  66.8715080
   3.4436144  91.5382209  74.1697550   3.7985531  91.7653682  75.0292015
   4.0908275  91.8700586  73.5474805   9.1733880  94.6600645  64.8746879
   9.0351779  94.8502241  63.9468068   8.8170099  95.4220028  65.3314930
   9.2003260  96.7277172  69.8858150   9.6339767  96.6352461  70.7341204
   9.9134841  96.7034672  69.2478166  10.0618810  96.7700872  72.4191036
  10.2554700  97.6746683  72.6650311   9.9619428  96.3108291  73.2529621
   1.7155120  86.6558763  74.9181363   1.0683035  87.3548713  74.8245839
   2.4856136  87.0894907  75.2857611   1.8919255  94.4939528  72.9778183
   2.8211315  94.6450687  72.8047150   1.4710285  94.5823549  72.1226829
   3.4631115  87.6234173  67.4220648   3.9599815  86.8704136  67.1021718
   2.6918097  87.6598490  66.8563857  11.3160873  93.3274539  69.0638939
  11.3050749  94.2099254  68.6932873  10.4478252  92.9746090  68.8693477
   7.9333447  92.2223180  65.5309105   8.3993900  93.0551172  65.4569408
   8.3840948  91.7568161  66.2354364   5.9050110  84.5903767  69.5700007
   4.9913190  84.8207994  69.7382214   6.3343212  84.6742211  70.4214039
   5.6756569  92.7793659  72.0699901   5.0228019  93.0269566  71.4152354
   6.0536949  91.9657797  71.7362378   2.6678168  88.2261947  62.6003256
   2.8841782  89.1086585  62.2992084   2.1872235  87.8348160  61.8708898
   1.1199903  88.6087548  71.2708017   0.8617681  89.5304619  71.2692348
   0.5884943  88.2117983  71.9608481   1.5401858  84.7419499  67.6309180
   1.5623555  84.8058832  66.6761159   1.9569917  83.9024007  67.8249686
  11.9185483  94.4774758  65.6688402  12.3616629  93.7282084  65.2707526
  11.0411993  94.4684895  65.2862134   8.7604468  95.9630175  75.2966258
   8.8102473  95.7980183  76.2381781   8.6518392  95.0957434  74.9064139
   6.0508231  91.9461103  76.6125565   6.9518093  91.8067568  76.3209563
   6.1256205  92.1115558  77.5523742  11.4618347  95.9479997  68.0610850
  12.2965239  96.3869801  68.2248410  11.5977476  95.4718650  67.2419096
   8.5109853  93.5059731  74.0088338   8.9863975  93.6987378  73.2007189
   7.5875419  93.5618917  73.7631721   3.0890070  85.5407575  72.9744172
   3.6072014  86.2768602  72.6490660   2.7345203  85.8471568  73.8090931
   3.3402664  81.9607858  68.4945068   3.6204418  81.2931047  69.1205495
   4.1253271  82.1536953  67.9819732   7.2111522  90.3825492  72.2416643
   8.1628945  90.4823589  72.2628867   7.0414973  89.5903760  72.7514728
   5.2325902  87.4681075  72.4276044   4.6375834  87.7486088  71.7322533
   4.9475598  87.9574976  73.1992785   9.6899600  93.6031611  71.3558943
   9.6575920  92.6647612  71.5418627  10.3000224  93.6815648  70.6224768
   1.5282931  92.4727664  57.3986147   2.4742036  92.3433872  57.4674565
   1.1497176  91.7342326  57.8755575   9.8394089  90.3942655  71.4017226
   9.3233137  89.6101111  71.2147155  10.7234037  90.0661371  71.5663746
   7.5004816  84.1383670  67.3613039   7.3029637  83.8298758  68.2456371
   8.1104521  84.8645309  67.4910969  15.5076150  94.6647618  70.4964980
  16.2379538  94.4032906  71.0572683  14.8983095  93.9276340  70.5367048
  13.5891447  92.8055481  71.0939431  12.8624611  92.6711446  70.4855923
  13.1738734  93.1132309  71.8996149   1.3287914  84.9414530  63.4885273
   0.5188642  84.5961615  63.8640520   2.0172331  84.6322074  64.0772885
   3.2578462  84.0192577  65.1109570   3.8109501  84.4388031  65.7699593
   3.4948548  83.0928325  65.1532526   6.6357269  86.1293102  64.6188234
   6.0555938  86.7877906  64.2366287   6.3693202  85.3070447  64.2075652
   5.0860836  85.5298160  66.8209555   5.5860614  85.6414695  66.0123874
   5.7296444  85.2259213  67.4610363   5.4182147  88.2893193  63.6744583
   4.5308002  88.5742843  63.4564777   5.8336136  88.1286956  62.8271860
   8.7696683  88.3139714  67.3898922   9.5457073  88.8036166  67.6623539
   8.0444818  88.7397768  67.8470791  11.2069242  89.0267333  68.4472863
  11.8013733  88.7863069  67.7366171  11.2795826  88.3074463  69.0746399
   5.3923171  93.8047729  63.8894873   5.3358372  94.2616280  63.0502505
   5.9451513  93.0438413  63.7117716   9.2027977  89.5937460  64.7144992
   8.9464911  89.1934096  65.5453200   8.5780845  90.3081254  64.5895131
  13.5140315  92.3333534  67.2216284  12.9539873  92.4026723  67.9947846
  12.9083818  92.1574518  66.5015780   6.1257950  94.9952510  61.1847402
   6.0706754  94.8296781  60.2435846   5.5004006  95.7028543  61.3409592
   3.2506195  81.0903396  65.0178657   2.4838591  80.5361882  65.1635340
   3.6616900  81.1625264  65.8792809  14.6754581  98.2307890  71.9698348
  14.3318850  99.1209532  71.8937459  15.0433544  98.0409548  71.1067933
  16.4742247  97.4901449  67.0716086  16.7801123  96.6298813  66.7842001
  17.1994851  98.0819069  66.8715080  14.1796418  97.2899775  68.4945068
  14.4598172  96.6222964  69.1205495  14.9647025  97.4828871  67.9819732
  18.3398570  99.4675588  67.3613039  18.1423391  99.1590676  68.2456371
  18.9498276 100.1937227  67.4910969  14.0899950  96.4195313  65.0178657
  13.3232346  95.8653800  65.1635340  14.5010655  96.4917182  65.8792809
   4.2575982  56.1842213  54.4890042   3.5039690  55.6149611  54.3334046
   4.3923523  56.1504878  55.4360677   0.6224594  57.6250202  54.7856157
   1.4571486  58.0640006  54.9493717   0.7583723  57.1488855  53.9664402
   4.6682397  56.3417823  57.2210286   5.3985785  56.0803111  57.7817990
   4.0589342  55.6046545  57.2612354   2.7497694  54.4825686  57.8184738
   2.0230857  54.3481651  57.2101229   2.3344981  54.7902514  58.6241456
   2.6746562  54.0103739  53.9461590   2.1146119  54.0796928  54.7193152
   2.0690065  53.8344723  53.2261087   4.2602580  70.6860253  56.6391546
   4.8980990  70.5667000  55.9354886   4.1423423  71.6341097  56.6979498
   1.0692286  70.6387681  56.5753071   0.7310798  70.5228745  55.6873606
   1.9382054  70.2378846  56.5554077   1.5512069  71.7922532  62.5339276
   1.5400710  71.3975331  61.6619780   1.7132709  71.0588605  63.1273048
   2.5078661  76.1594125  47.8764427   1.8566640  76.7448205  47.4898440
   3.3023023  76.6900320  47.9359464   3.8143848  68.4111706  53.7144754
   4.6006938  67.9931130  53.3635171   4.0782553  69.3157799  53.8826403
   3.9853926  73.8484557  48.4133411   3.3499759  73.9219183  49.1254316
   3.6551332  74.4378156  47.7352490   9.2152276  68.3486940  54.6177733
   9.9477448  67.7786156  54.8515562   8.4591631  67.9608540  55.0584238
   6.7377696  62.0608514  59.0772341   6.4061021  62.9303925  58.8533556
   6.1423309  61.7444798  59.7566372   3.2309215  74.2621060  58.4768254
   2.9309939  75.1646099  58.3684061   2.8860275  73.9953243  59.3289407
   6.6306359  66.7803600  56.1565691   5.7223237  66.7119008  55.8624452
   6.5793955  67.2575545  56.9847517   8.4968006  64.9820038  57.9343565
   7.8542386  65.2752571  57.2883360   7.9922934  64.8672959  58.7396762
   6.1508169  68.7283212  48.6229424   7.0626025  68.9610598  48.4477122
   5.6417816  69.3120256  48.0604503   4.4348937  73.1507839  62.2590717
   4.8432293  72.7090250  61.5145349   3.7126198  72.5760467  62.5124910
   0.7880007  68.0880446  59.6324274   1.6341202  68.5119860  59.7758923
   0.7278645  67.4314070  60.3262837   4.7577752  73.7109030  56.0143006
   4.1286614  73.8754744  55.3119074   4.3703414  74.1250640  56.7853970
   8.6366984  74.6463468  53.3687370   7.9518022  75.0262369  52.8184403
   8.7210833  75.2558794  54.1019317   3.9379452  65.7484814  61.2905448
   3.6940384  66.5026875  60.7539723   4.2139383  66.1270162  62.1252695
   5.8917915  72.2923427  59.9682713   6.1034810  72.9355187  59.2917094
   5.8447663  71.4585743  59.5004643   3.4944144  64.9041247  56.8719285
   2.6328623  65.2022501  57.1636023   3.5206579  65.1211646  55.9400318
   7.0063743  75.1695382  58.1405071   7.8281187  74.7675570  57.8587752
   7.0026146  75.0663616  59.0921186  15.0969736  71.5134131  54.4890042
  14.3433445  70.9441529  54.3334046  15.2317277  71.4796795  55.4360677
   2.1136841  77.0071100  64.2945103   1.6700695  76.2207478  63.9766008
   2.7754054  77.1950250  63.6288994   4.2118079  77.2873899  62.3226505
   4.1936554  78.1082781  61.8306774   5.1337999  77.1627975  62.5476646
   3.8360828  59.9078095  58.6943655   3.4925097  60.7979737  58.6182765
   4.2039790  59.7179753  57.8313240   3.8011110  69.8986706  47.2016090
   3.2857734  70.6691311  47.4404477   3.5288419  69.2251842  47.8249151
   1.3858222  64.7436407  52.2601328   0.5299818  64.3543257  52.0806967
   1.7985173  64.8228368  51.4001114   2.9157368  62.2782750  56.6592888
   2.4122164  62.2412885  55.8460693   3.2087975  63.1875493  56.7189545
   8.7745385  72.6519061  49.1369263   7.9974827  72.3130220  48.6924426
   9.4536866  72.6571684  48.4624228   3.5897414  67.7713798  49.0275871
   3.2847549  68.0859947  49.8786014   4.5427856  67.8495218  49.0703204
   2.0343845  73.9304021  50.6768825   1.5065207  73.1956781  50.3642063
   1.5331348  74.7078698  50.4308793   7.0136692  72.1253042  55.7935871
   6.3560366  72.8152303  55.8816000   7.8177091  72.5149474  56.1369858
   5.8242150  70.4797415  53.8439813   6.3374032  71.1127406  54.3461523
   6.4743374  69.8798610  53.4783173   3.0864525  80.4581739  46.6000484
   2.4126223  80.7613436  47.2085442   3.4730347  81.2610819  46.2505941
   2.3022981  67.9546870  56.0898154   1.3845543  68.1761817  55.9319842
   2.7183125  68.0293181  55.2309861   3.0858029  69.3538286  51.2200834
   3.8329848  69.8659683  50.9107956   3.3549618  69.0322339  52.0805228
   6.5903947  75.4603416  51.9718956   6.1366274  74.6194326  52.0284146
   5.9597913  76.0964814  52.3093736   5.5336866  66.3895402  53.2019623
   4.7959623  65.8772788  53.5329866   5.7863640  65.9495784  52.3902900
   5.0336886  77.2979913  52.9068774   5.3259860  77.8584970  52.1881140
   5.5435506  77.5908474  53.6621933   5.6348493  59.1671654  53.7961393
   5.9407370  58.3069018  53.5087308   6.3601098  59.7589274  53.5960386
   1.0560767  73.3905570  45.5415867   0.6180197  72.6741429  45.0821504
   1.7971208  73.6181685  44.9800958   3.4436145  68.5444331  60.8942856
   3.7985532  68.7715805  61.7537322   4.0908276  68.8762708  60.2720112
   9.1733882  71.6662767  51.5992185   9.0351780  71.8564363  50.6713375
   8.8170101  72.4282150  52.0560237   9.2003261  73.7339294  56.6103457
   9.6339768  73.6414583  57.4586511   9.9134842  73.7096795  55.9723473
   2.9331156  77.3341388  58.1436557   2.9868178  77.9032325  58.9114273
   2.0645938  77.5043273  57.7790595  10.0618811  73.7762995  59.1436342
  10.2554701  74.6808805  59.3895617   9.9619429  73.3170414  59.9774927
   1.7155122  63.6620886  61.6426670   1.0683037  64.3610835  61.5491146
   2.4856137  64.0957029  62.0102918   5.1233920  73.9269738  64.7177223
   4.9719426  73.6980289  63.8007307   5.1138599  74.8840339  64.7308568
   1.8919256  71.5001650  59.7023489   2.8211316  71.6512810  59.5292457
   1.4710286  71.5885671  58.8472136   1.2855740  80.6261411  48.8147563
   1.4607495  80.1549455  49.6293186   0.5988528  81.2527178  49.0428824
   2.2412803  74.9033918  54.8610865   1.9062635  74.8634688  55.7568515
   1.7416749  74.2378633  54.3881275   5.1771995  72.2489952  45.1347924
   4.5601165  71.5236780  45.0380977   4.7088483  73.0099312  44.7914999
   6.8326126  76.9588860  62.7953705   6.7738672  76.2748080  62.1284288
   7.2345645  77.7007850  62.3434331   6.8343533  74.9228444  61.0267684
   5.9470312  74.5854366  61.1494083   7.4042085  74.1911475  61.2636450
   3.4631117  64.6296296  54.1465955   3.9599816  63.8766258  53.8267025
   2.6918098  64.6660613  53.5809164  11.3160874  70.3336662  55.7884246
  11.3050750  71.2161377  55.4178179  10.4478253  69.9808212  55.5938783
   2.8243370  79.4816731  60.1487086   3.5371343  80.1164195  60.0762988
   2.3333399  79.5780597  59.3327088   4.5460897  73.3867983  51.7204378
   3.6117176  73.5069446  51.5509082   4.7237566  72.4840450  51.4564388
   7.9333449  69.2285303  52.2554412   8.3993901  70.0613294  52.1814715
   8.3840949  68.7630284  52.9599671   6.0009680  75.5729124  49.2540564
   6.2769524  75.4585718  50.1634438   5.1314178  75.1746609  49.2152737
   5.9050111  61.5965890  56.2945313   4.9913191  61.8270116  56.4627520
   6.3343213  61.6804334  57.1459346   5.6756570  69.7855781  58.7945207
   5.0228020  70.0331689  58.1397660   6.0536950  68.9719920  58.4607685
   2.6363744  79.8215475  52.8973378   2.8186138  79.0037131  53.3601130
   3.4596730  80.0383167  52.4598268   2.9705909  78.7483660  50.1588426
   3.4993676  78.2376114  49.5458588   3.2334129  78.4326190  51.0233959
   1.7244143  70.5275593  65.2811245   1.0484780  70.4269722  65.9513620
   2.5471777  70.3714806  65.7447242   5.3177800  76.6603777  65.3717515
   5.8617704  77.2733736  64.8772470   4.7364645  77.2183356  65.8884528
   3.6035313  79.7824496  56.5032543   3.4786452  78.9814235  55.9943488
   4.2614404  80.2770689  56.0146513   5.6670221  77.5833516  58.1312093
   4.7200557  77.4638867  58.0590420   6.0152995  76.6956014  58.2138354
   2.6716655  77.3786232  54.3316445   2.5241617  76.4502939  54.5124015
   3.4970148  77.4006323  53.8473520   6.2750777  78.2014791  55.4181318
   7.1997324  77.9957652  55.2805769   6.1066080  77.9531192  56.3270659
   2.6678169  65.2324069  49.3248562   2.8841783  66.1148707  49.0237390
   2.1872236  64.8410283  48.5954204   1.1199904  65.6149671  57.9953324
   0.8617682  66.5366742  57.9937654   0.5884944  65.2180105  58.6853788
   6.0646093  78.7200458  50.7743409   6.2382970  78.1546880  50.0217262
   6.5574984  79.5201353  50.5922899   1.5401860  61.7481621  54.3554486
   1.5623556  61.8120954  53.4006466   1.9569919  60.9086130  54.5494993
  11.9185484  71.4836881  52.3933709  12.3616630  70.7344206  51.9952832
  11.0411994  71.4747017  52.0107441   7.0521265  78.0367222  47.8740308
   7.7472170  78.6573915  48.0927622   7.3944415  77.1862574  48.1492685
   8.9512688  75.4866928  49.4027638   9.4764012  75.8254201  48.6776958
   8.8635041  74.5513943  49.2190773   0.6132737  79.4001002  61.5317515
   0.9219864  79.1550148  62.4040215   1.4108219  79.6047640  61.0436385
   8.6406594  76.1199832  64.7078836   7.8502138  76.1023970  64.1683336
   8.4039949  76.6588125  65.4627873   8.7604470  72.9692298  62.0211565
   8.8102474  72.8042305  62.9627088   8.6518393  72.1019557  61.6309446
   6.0508232  68.9523226  63.3370871   6.9518095  68.8129691  63.0454869
   6.1256206  69.1177681  64.2769049  10.2622666  75.3889239  62.2653586
   9.9707475  75.7519220  63.1017047   9.6494798  74.6756248  62.0866918
  11.4618349  72.9542119  54.7856157  12.2965240  73.3931923  54.9493717
  11.5977477  72.4780772  53.9664402   8.5109855  70.5121854  60.7333644
   8.9863976  70.7049500  59.9252496   7.5875420  70.5681040  60.4877028
   3.0890071  62.5469698  59.6989478   3.6072015  63.2830725  59.3735967
   2.7345204  62.8533691  60.5336237   3.3402665  58.9669980  55.2190375
   3.6204419  58.2993169  55.8450801   4.1253272  59.1599076  54.7065039
   1.1436134  78.1428974  46.7815401   0.5710101  78.7619161  46.3285873
   1.7168927  78.6928336  47.3155323   7.2111524  67.3887614  58.9661950
   8.1628946  67.4885712  58.9874174   7.0414974  66.5965883  59.4760034
   5.2325903  64.4743197  59.1521351   4.6375835  64.7548210  58.4567839
   4.9475600  64.9637098  59.9238092   4.3633394  78.4266124  47.9123983
   5.2964067  78.3611686  48.1156859   4.2756606  79.2622391  47.4538516
   6.9921410  77.7431995  44.8727931   6.9135042  77.4091858  45.7663689
   7.8131077  78.2353762  44.8719403   9.6899601  70.6093734  58.0804250
   9.6575921  69.6709735  58.2663933  10.3000225  70.6877771  57.3470074
   1.5282932  69.4789787  44.1231454   2.4742037  69.3495995  44.1919872
   1.1497177  68.7404449  44.6000882   9.8394090  67.4004777  58.1262533
   9.3233138  66.6163234  57.9392462  10.7234038  67.0723494  58.2909052
   7.5004817  61.1445793  54.0858345   7.3029638  60.8360881  54.9701677
   8.1104522  61.8707432  54.2156275  15.5076151  71.6709741  57.2210286
  16.2379540  71.4095029  57.7817990  14.8983097  70.9338463  57.2612354
  13.5891448  69.8117603  57.8184738  12.8624612  69.6773568  57.2101229
  13.1738735  70.1194432  58.6241456   1.4121625  73.5307533  65.5832111
   2.3324634  73.7086132  65.7772157   1.3771208  72.5863578  65.4311810
   1.3287915  61.9476653  50.2130580   0.5188643  61.6023738  50.5885826
   2.0172332  61.6384197  50.8018192   3.2578463  61.0254700  51.8354877
   3.8109502  61.4450153  52.4944900   3.4948550  60.0990448  51.8777833
   6.6357270  63.1355225  51.3433541   6.0555940  63.7940029  50.9611593
   6.3693203  62.3132569  50.9320959   5.0860837  62.5360283  53.5454861
   5.5860615  62.6476817  52.7369180   5.7296445  62.2321335  54.1855670
   5.4182148  65.2955315  50.3989889   4.5308004  65.5804966  50.1810084
   5.8336138  65.1349079  49.5517166   8.7696685  65.3201836  54.1144229
   9.5457075  65.8098289  54.3868845   8.0444819  65.7459890  54.5716098
  11.2069243  66.0329455  55.1718169  11.8013734  65.7925191  54.4611477
  11.2795827  65.3136586  55.7991705   4.5625362  75.0599990  44.4937909
   5.2661212  75.2649992  45.1095565   3.8388011  75.6276752  44.7586993
   5.3923172  70.8109851  50.6140179   5.3358374  71.2678403  49.7747812
   5.9451515  70.0500536  50.4363022   9.2027978  66.5999583  51.4390299
   8.9464912  66.1996219  52.2698507   8.5780846  67.3143377  51.3140438
  13.5140316  69.3395656  53.9461590  12.9539874  69.4088846  54.7193152
  12.9083819  69.1636641  53.2261087   6.4712059  75.4982519  46.5436369
   7.3057663  75.0663718  46.3613844   6.3096402  75.3264533  47.4713264
   6.1257952  72.0014632  47.9092709   6.0706755  71.8358904  46.9681153
   5.5004007  72.7090665  48.0654898   3.4403859  74.3063544  67.2346271
   4.3095018  74.4804197  66.8732906   2.9610610  75.1257961  67.1122001
   3.2506196  58.0965518  51.7423964   2.4838592  57.5424005  51.8880646
   3.6616901  58.1687387  52.6038115  15.0996334  86.0152170  56.6391546
  15.7374744  85.8958918  55.9354886  14.9817177  86.9633014  56.6979498
  11.9086041  85.9679598  56.5753071  11.5704552  85.8520663  55.6873606
  12.7775809  85.5670763  56.5554077   7.7672856  87.8215075  52.5649962
   7.2037722  87.7305012  51.7966249   7.6525251  87.0014979  53.0452454
  12.3905824  87.1214450  62.5339276  12.3794465  86.7267248  61.6619780
  12.5526463  86.3880523  63.1273048   5.3137288  89.3166266  55.4034182
   6.1058580  88.9757091  54.9880481   5.5533939  89.4261241  56.3236335
  13.3472415  91.4886042  47.8764427  12.6960395  92.0740123  47.4898440
  14.1416778  92.0192237  47.9359464   7.2728042  88.5775180  48.2751561
   8.0458918  88.0304167  48.1364437   7.6253441  89.4419429  48.4866022
   9.1113085  89.9051562  61.4818460   8.8202951  90.8097193  61.3665127
   9.7470069  89.9468090  62.1962530  10.0369292  87.2828410  58.0719820
  10.6332864  87.0584433  57.3576783  10.0944263  86.5413156  58.6745268
   9.6094320  84.7367846  45.9070011   9.8619841  84.2149367  45.1453474
   8.6718879  84.5733991  46.0096694  14.6537603  83.7403624  53.7144754
  15.4400692  83.3223047  53.3635171  14.9176307  84.6449716  53.8826403
  14.8247680  89.1776474  48.4133411  14.1893513  89.2511101  49.1254316
  14.4945087  89.7670073  47.7352490  20.0546030  83.6778857  54.6177733
  20.7871202  83.1078074  54.8515562  19.2985386  83.2900458  55.0584238
   9.3290609  86.6395952  48.1094386   9.2126867  85.9640855  48.7775470
   9.4392869  86.1528326  47.2926539  11.6722150  86.1006099  51.8141075
  11.3080357  85.5736720  52.5253997  12.5289266  85.7104568  51.6407560
  17.5771450  77.3900431  59.0772341  17.2454775  78.2595842  58.8533556
  16.9817064  77.0736715  59.7566372  11.3127637  81.1295999  46.8102424
  11.4802039  81.9976235  47.1772895  11.1224806  81.2923280  45.8863713
  14.0702970  89.5912977  58.4768254  13.7703693  90.4938016  58.3684061
  13.7254029  89.3245161  59.3289407   7.5215451  86.0426774  54.5104958
   6.5965948  85.9102988  54.7182650   7.7699865  86.8220994  55.0074901
  17.4700114  82.1095518  56.1565691  16.5616991  82.0410926  55.8624452
  17.4187710  82.5867463  56.9847517  11.2916858  83.5853656  47.7949090
  11.1716483  84.0310707  48.6334571  10.5969446  83.9338974  47.2362629
   4.8824262  85.6860048  55.3448747   5.0116644  85.9394527  56.2588159
   4.2021714  86.2787756  55.0253403   9.0523750  96.3557298  51.4439222
   8.9747779  97.3065123  51.5227702   8.4485393  96.0103170  52.1014148
  11.5440980  83.5285163  64.1000589  10.7674314  84.0879083  64.0903453
  12.1831543  84.0141946  64.6215459  19.3361760  80.3111956  57.9343565
  18.6936140  80.6044489  57.2883360  18.8316689  80.1964876  58.7396762
  16.9901924  84.0575129  48.6229424  17.9019780  84.2902516  48.4477122
  16.4811571  84.6412173  48.0604503   9.7987352  86.3370617  63.6618556
  10.5402036  86.8755661  63.3853379   9.0924337  86.9636905  63.8190107
  15.2742691  88.4799757  62.2590717  15.6826048  88.0382168  61.5145349
  14.5519953  87.9052385  62.5124910  11.6273762  83.4172364  59.6324274
  12.4734957  83.8411777  59.7758923  11.5672399  82.7605988  60.3262837
  15.5971506  89.0400948  56.0143006  14.9680369  89.2046662  55.3119074
  15.2097168  89.4542557  56.7853970  19.4760738  89.9755385  53.3687370
  18.7911776  90.3554287  52.8184403  19.5604587  90.5850712  54.1019317
  14.7773207  81.0776732  61.2905448  14.5334139  81.8318793  60.7539723
  15.0533137  81.4562080  62.1252695  16.7311670  87.6215345  59.9682713
  16.9428565  88.2647104  59.2917094  16.6841418  86.7877661  59.5004643
  14.3337899  80.2333165  56.8719285  13.4722378  80.5314419  57.1636023
  14.3600333  80.4503564  55.9400318  11.1499468  88.7775356  53.2793091
  11.6137814  89.0563059  52.4897714  10.8856266  87.8758800  53.0966182
   8.0423549  88.3246837  56.2172854   8.6124906  88.7534106  55.5790339
   8.6331661  88.0429422  56.9157040  10.0868354  84.8998508  50.0882656
  10.7892397  85.3519552  50.5556583   9.7548983  84.2582327  50.7162549
   8.5348716  83.4910265  64.4633866   7.9047376  84.1726546  64.6969262
   8.4284803  83.3793346  63.5187004   3.8293688  83.1582061  55.3899790
   3.0392742  83.4139589  54.9139900   4.3204935  83.9730399  55.4951830
  17.8457498  90.4987300  58.1405071  18.6674941  90.0967487  57.8587752
  17.8419900  90.3955534  59.0921186   5.7808433  83.5226640  52.3483266
   4.9839597  83.6345334  52.8666762   5.5534026  83.8613292  51.4824157
  11.6114101  90.0471343  60.2965781  11.6758534  90.5091750  61.1323953
  10.9025025  89.4168708  60.4248091   2.1131391  83.4112551  57.8214781
   2.3639429  84.2959561  58.0872356   2.6490939  83.2317153  57.0489872
  25.9363491  86.8426048  54.4890042  25.1827199  86.2733446  54.3334046
  26.0711032  86.8088713  55.4360677  11.3262119  91.7139451  50.1644761
  11.1907793  92.5590986  50.5929609  11.8671931  91.9158728  49.4010695
   7.8129458  77.7931031  66.8259117   7.4196404  77.2397229  67.5006761
   8.6295599  78.1041609  67.2165634   4.7791516  89.2314889  50.7372686
   5.2916037  90.0258139  50.8878251   5.4314229  88.5341179  50.6706288
   6.5886401  92.3480645  52.8195440   6.7653029  93.2698610  52.6316424
   7.3843234  92.0339064  53.2489819  10.7297419  79.2088910  64.4179373
  11.4707133  79.8096063  64.3383836  10.9615342  78.4666547  63.8597416
   5.8738757  84.3945277  62.6957603   5.7592272  83.4930534  62.9964702
   5.0183275  84.6408974  62.3442419  12.9530595  92.3363017  64.2945103
  12.5094449  91.5499396  63.9766008  13.6147809  92.5242168  63.6288994
   7.7117716  93.8658819  58.8205782   8.2625141  93.7375882  58.0482776
   6.8729192  94.1653708  58.4700675  15.0511833  92.6165817  62.3226505
  15.0330308  93.4374698  61.8306774  15.9731753  92.4919892  62.5476646
  11.5084887  90.1309947  63.1650013  12.0413224  89.3698235  62.9349321
  10.9798968  89.8383598  63.9074168  14.6754582  75.2370013  58.6943655
  14.3318852  76.1271654  58.6182765  15.0433545  75.0471670  57.8313240
   2.7440433  87.5603543  51.5132257   3.5815655  87.9700551  51.2965965
   2.9218701  86.6202985  51.4832451  14.6404865  85.2278624  47.2016090
  14.1251488  85.9983228  47.4404477  14.3682173  84.5543760  47.8249151
  12.2251976  80.0728324  52.2601328  11.3693572  79.6835175  52.0806967
  12.6378928  80.1520285  51.4001114  13.7551123  77.6074668  56.6592888
  13.2515918  77.5704803  55.8460693  14.0481729  78.5167410  56.7189545
   9.9994009  77.6913397  55.6659070  10.8647005  77.4956206  55.3064959
  10.0671517  77.4623749  56.5928427  19.6139139  87.9810978  49.1369263
  18.8368582  87.6422138  48.6924426  20.2930620  87.9863602  48.4624228
  14.4291168  83.1005716  49.0275871  14.1241304  83.4151865  49.8786014
  15.3821610  83.1787136  49.0703204  12.8737600  89.2595939  50.6768825
  12.3458962  88.5248699  50.3642063  12.3725103  90.0370615  50.4308793
  17.8530446  87.4544960  55.7935871  17.1954120  88.1444221  55.8816000
  18.6570845  87.8441392  56.1369858   7.6056328  79.9215605  53.0375437
   8.1800079  79.6990787  52.3048630   8.1927310  79.9904300  53.7904038
  16.6635905  85.8089332  53.8439813  17.1767787  86.4419324  54.3461523
  17.3137129  85.2090528  53.4783173   7.9325915  81.9520066  47.0571322
   7.0963227  82.2894753  47.3780597   7.7930684  81.8169046  46.1198459
   9.9078995  76.7956854  51.7650506   9.2543408  76.4805871  51.1407121
   9.8659469  76.1732595  52.4910329  11.0190200  87.0776149  43.6803798
  10.1117262  86.8465403  43.8794947  11.5161232  86.2813769  43.8677780
  13.9258279  95.7873657  46.6000484  13.2519978  96.0905353  47.2085442
  14.3124101  96.5902737  46.2505941  13.1416736  83.2838788  56.0898154
  12.2239297  83.5053735  55.9319842  13.5576879  83.3585098  55.2309861
  13.9251783  84.6830204  51.2200834  14.6723602  85.1951601  50.9107956
  14.1943373  84.3614256  52.0805228  12.1978434  87.1788744  48.2027788
  11.2889653  86.8947777  48.3000258  12.2273517  87.5987823  47.3431095
  17.4297701  90.7895334  51.9718956  16.9760028  89.9486244  52.0284146
  16.7991668  91.4256732  52.3093736  16.3730621  81.7187320  53.2019623
  15.6353377  81.2064706  53.5329866  16.6257394  81.2787701  52.3902900
  15.8730640  92.6271830  52.9068774  16.1653615  93.1876888  52.1881140
  16.3829261  92.9200391  53.6621933  16.4742248  74.4963572  53.7961393
  16.7801125  73.6360935  53.5087308  17.1994853  75.0881192  53.5960386
   2.7666604  84.8994258  52.1842990   2.5691004  84.3063619  51.4594057
   2.2113268  84.5946469  52.9018929  10.7463328  84.7917365  54.3037584
  10.8011937  83.8391201  54.2280060   9.9354530  84.9476804  54.7878882
  11.8954521  88.7197488  45.5415867  11.4573951  88.0033347  45.0821504
  12.6364962  88.9473603  44.9800958   8.6855688  83.4094425  52.0627962
   7.8723553  83.7088595  52.4693155   9.1814682  83.0150113  52.7802445
  10.8364265  93.4052182  53.9962227  10.7940444  93.6313028  53.0670759
  11.7526964  93.1715556  54.1448028  14.2829899  83.8736249  60.8942856
  14.6379287  84.1007722  61.7537322  14.9302030  84.2054626  60.2720112
  20.0127636  86.9954685  51.5992185  19.8745535  87.1856281  50.6713375
  19.6563855  87.7574068  52.0560237   8.1769762  80.9812780  57.6789197
   8.8169142  80.8401539  56.9812161   7.3447293  80.6947294  57.3027799
  20.0397016  89.0631212  56.6103457  20.4733522  88.9706501  57.4586511
  20.7528596  89.0388712  55.9723473   8.9530066  90.2815211  53.7924190
   9.7470665  89.7865531  53.5906765   8.2421759  89.7533074  53.4291895
  13.7724911  92.6633306  58.1436557  13.8261933  93.2324242  58.9114273
  12.9039692  92.8335191  57.7790595   5.2612830  84.4258292  49.8683943
   4.3310418  84.3642748  50.0853905   5.3570302  83.9034245  49.0720584
   5.1798379  80.9513105  52.4562184   5.4405196  81.8658438  52.3471345
   6.0015551  80.4837548  52.6058797   6.6523304  82.3650862  59.6261009
   7.3246357  82.1568224  58.9773658   5.8253091  82.1672948  59.1866241
  20.9012565  89.1054913  59.1436342  21.0948455  90.0100723  59.3895617
  20.8013184  88.6462332  59.9774927  12.5548876  78.9912803  61.6426670
  11.9076791  79.6902753  61.5491146  13.3249891  79.4248947  62.0102918
  15.9627674  89.2561655  64.7177223  15.8113180  89.0272207  63.8007307
  15.9532353  90.2132257  64.7308568  12.7313010  86.8293568  59.7023489
  13.6605070  86.9804728  59.5292457  12.3104040  86.9177589  58.8472136
  11.5301342  90.8544233  57.4722027  11.3912428  90.4863017  58.3447965
  10.7415938  91.3691872  57.3005985  12.1249494  95.9553329  48.8147563
  12.3001250  95.4841372  49.6293186  11.4382282  96.5819095  49.0428824
  13.0806557  90.2325835  54.8610865  12.7456390  90.1926605  55.7568515
  12.5810503  89.5670551  54.3881275   7.0550801  85.6393465  60.3863446
   6.9170599  84.9073704  60.9874985   7.9655725  85.5502365  60.1047634
  16.0165749  87.5781870  45.1347924  15.3994920  86.8528698  45.0380977
  15.5482237  88.3391230  44.7914999   9.6833102  85.3513425  59.8747126
  10.3932721  84.7106617  59.8333744   9.6402410  85.6026319  60.7973306
  17.6719881  92.2880778  62.7953705  17.6132427  91.6039998  62.1284288
  18.0739399  93.0299768  62.3434331   8.3962036  82.3378642  61.6942765
   7.8599393  81.8869381  62.3464361   7.8078744  82.4724551  60.9513229
   7.8064295  81.7967294  44.2569229   6.9293761  81.6756095  43.8931475
   8.2822048  81.0053372  44.0048117  17.6737288  90.2520362  61.0267684
  16.7864067  89.9146284  61.1494083  18.2435839  89.5203393  61.2636450
   4.1301157  81.4734650  58.7795760   4.0459346  80.8660320  58.0446169
   3.3083864  81.9643668  58.7805256  11.2038441  94.9121814  57.9928928
  11.1308613  95.7176786  58.5048232  10.7615834  95.1113780  57.1676949
  10.9928221  94.1493584  51.5031749  10.2095743  94.6915264  51.5969974
  11.6920966  94.6667564  51.9025990  14.3024871  79.9588214  54.1465955
  14.7993571  79.2058176  53.8267025  13.5311853  79.9952530  53.5809164
  22.1554628  85.6628579  55.7884246  22.1444505  86.5453295  55.4178179
  21.2872008  85.3100130  55.5938783  13.6637125  94.8108648  60.1487086
  14.3765097  95.4456113  60.0762988  13.1727153  94.9072514  59.3327088
  15.3854652  88.7159901  51.7204378  14.4510930  88.8361363  51.5509082
  15.5631320  87.8132368  51.4564388  10.8859840  82.1005597  53.8737639
  10.5157627  81.5476637  54.5618545  11.3818932  81.4963730  53.3212639
  18.7727203  84.5577220  52.2554412  19.2387655  85.3905212  52.1814715
  19.2234704  84.0922202  52.9599671   8.7149038  92.5603092  60.9692657
   9.4158498  93.1939575  61.1222051   8.2444153  92.9017823  60.2088296
  16.8403434  90.9021041  49.2540564  17.1163278  90.7877636  50.1634438
  15.9707933  90.5038526  49.2152737  16.7443866  76.9257807  56.2945313
  15.8306946  77.1562034  56.4627520  17.1736967  77.0096251  57.1459346
  16.5150324  85.1147699  58.7945207  15.8621775  85.3623607  58.1397660
  16.8930704  84.3011837  58.4607685  13.4757498  95.1507392  52.8973378
  13.6579893  94.3329048  53.3601130  14.2990484  95.3675085  52.4598268
  13.8099664  94.0775577  50.1588426  14.3387430  93.5668032  49.5458588
  14.0727883  93.7618108  51.0233959  12.5637897  85.8567510  65.2811245
  11.8878534  85.7561640  65.9513620  13.3865531  85.7006724  65.7447242
   4.3116756  92.0939447  57.9023760   4.8970193  91.3483135  58.0351664
   4.1141595  92.4043403  58.7860424   7.1655412  95.1290694  52.9186202
   6.4965787  95.6136822  52.4350242   7.0268281  95.3759915  53.8329581
  11.3060680  97.1634438  59.5168861  11.8578988  97.3266059  60.2817946
  11.6466874  97.7538875  58.8448885   6.2825173  79.5109587  60.1190745
   6.3466500  80.3724418  59.7068143   6.2192294  78.8983589  59.3863104
   5.7577446  81.5832720  63.7663780   6.3849485  81.2009797  64.3801304
   4.9005365  81.3646922  64.1319472  16.1571555  91.9895695  65.3717515
  16.7011459  92.6025653  64.8772470  15.5758399  92.5475274  65.8884528
   2.5342989  83.3909149  49.6982134   2.8296430  82.4819828  49.6449188
   1.6331025  83.3696889  49.3763137  14.4429068  95.1116413  56.5032543
  14.3180207  94.3106153  55.9943488  15.1008159  95.6062607  56.0146513
   6.0637236  81.4665146  55.6809683   5.3423822  82.0801113  55.5417156
   6.8530492  82.0022911  55.6026329  16.5063976  92.9125433  58.1312093
  15.5594311  92.7930784  58.0590420  16.8546749  92.0247931  58.2138354
   8.8663549  78.8019572  61.9550335   9.3897951  79.0481869  62.7176644
   8.6475883  79.6339607  61.5353472   4.2630830  81.0723247  49.8221460
   3.9343537  80.1920626  49.6396565   4.6170201  81.0170915  50.7097849
  13.5110409  92.7078149  54.3316445  13.3635372  91.7794857  54.5124015
  14.3363903  92.7298240  53.8473520   7.3772654  81.3596217  50.1896937
   7.7168726  81.8882138  49.4675546   7.8244774  81.6976623  50.9655504
  17.1144531  93.5306708  55.4181318  18.0391079  93.3249570  55.2805769
  16.9459834  93.2823109  56.3270659  10.0716094  79.7433267  59.6400005
   9.7312915  78.9441080  60.0420685   9.3655101  80.0434978  59.0676838
  10.7232566  76.8282580  58.0927328  11.5458635  76.3543058  57.9706219
  10.9670630  77.6073063  58.5926015   9.3640801  79.8570838  48.3890230
  10.0849163  80.2352091  47.8853947   8.7406105  80.5759715  48.4925208
  13.5071924  80.5615987  49.3248562  13.7235538  81.4440625  49.0237390
  13.0265991  80.1702201  48.5954204   8.2471145  83.5201700  55.9019307
   8.1015726  83.8342003  56.7943588   7.7696349  84.1386601  55.3490206
  10.1067528  80.5104248  55.9500196  10.0929097  79.6145342  55.6132494
  10.8239956  80.5174912  56.5838482  11.9593659  80.9441589  57.9953324
  11.7011436  81.8658659  57.9937654  11.4278699  80.5472023  58.6853788
  16.9039847  94.0492376  50.7743409  17.0776725  93.4838798  50.0217262
  17.3968739  94.8493271  50.5922899   2.7216807  86.0607045  58.8406968
   2.1770275  86.8366853  58.9727242   3.5996157  86.4077849  58.6826089
   9.5104424  79.3918629  51.2187767   9.6320335  78.4635275  51.4178654
   9.2206466  79.4057315  50.3066082  12.3795614  77.0773539  54.3554486
  12.4017311  77.1412872  53.4006466  12.7963673  76.2378048  54.5494993
  22.7579238  86.8128799  52.3933709  23.2010384  86.0636124  51.9952832
  21.8805749  86.8038935  52.0107441  17.8915020  93.3659140  47.8740308
  18.5865924  93.9865833  48.0927622  18.2338170  92.5154491  48.1492685
   3.5082829  85.1876941  61.7337125   2.7664565  85.3359576  62.3201755
   3.1875573  85.4485207  60.8703874  19.7906443  90.8158846  49.4027638
  20.3157767  91.1546118  48.6776958  19.7028795  89.8805861  49.2190773
  11.4526492  94.7292919  61.5317515  11.7613618  94.4842066  62.4040215
  12.2501974  94.9339558  61.0436385  11.4747104  96.8830829  53.7622891
  11.0352094  96.3907208  54.4555748  12.2255221  96.3403797  53.5214967
   3.9539443  93.0742370  53.7647520   4.7797463  92.7746142  53.3846163
   3.6033495  92.3049992  54.2137308   8.9220976  92.4268838  55.8345193
   8.3000985  91.7639543  55.5347421   9.5925843  92.4529970  55.1518841
   2.1548048  90.9928696  54.7236453   1.3179956  90.5650871  54.5420454
   2.1271693  91.1861140  55.6607244   8.9945503  80.9050626  65.4277699
   9.0433659  81.7812749  65.0455469   9.5368017  80.3628019  64.8549342
  19.4800349  91.4491749  64.7078836  18.6895893  91.4315888  64.1683336
  19.2433704  91.9880043  65.4627873  19.5998224  88.2984216  62.0211565
  19.6496229  88.1334223  62.9627088  19.4912147  87.4311475  61.6309446
   8.4834483  90.9772761  49.3103654   8.6322603  91.6608226  48.6570326
   9.2900926  90.9577851  49.8253109  16.8901986  84.2815144  63.3370871
  17.7911849  84.1421608  63.0454869  16.9649961  84.4469598  64.2769049
  11.2244792  81.6581998  62.1824058  10.3548101  81.9515564  61.9106646
  11.4604272  82.2422443  62.9031321  21.1016421  90.7181157  62.2653586
  20.8101229  91.0811138  63.1017047  20.4888552  90.0048165  62.0866918
  22.3012103  88.2834037  54.7856157  23.1358995  88.7223841  54.9493717
  22.4371232  87.8072690  53.9664402  19.3503609  85.8413772  60.7333644
  19.8257731  86.0341418  59.9252496  18.4269174  85.8972958  60.4877028
   6.2387116  87.0037939  50.3164723   5.9933158  86.1000269  50.5144933
   6.4083030  87.0055089  49.3744201  13.9283826  77.8761615  59.6989478
  14.4465769  78.6122642  59.3735967  13.5738958  78.1825609  60.5336237
   5.5082763  82.7366297  47.8150884   4.8152008  82.8110652  47.1590920
   5.2634515  81.9726640  48.3372401  14.1796420  74.2961898  55.2190375
  14.4598173  73.6285087  55.8450801  14.9647027  74.4890993  54.7065039
  11.9829888  93.4720892  46.7815401  11.4103855  94.0911079  46.3285873
  12.5562682  94.0220253  47.3155323  18.0505278  82.7179532  58.9661950
  19.0022701  82.8177630  58.9874174  17.8808728  81.9257800  59.4760034
  16.0719658  79.8035115  59.1521351  15.4769590  80.0840128  58.4567839
  15.7869354  80.2929016  59.9238092  15.2027148  93.7558042  47.9123983
  16.1357821  93.6903604  48.1156859  15.1150361  94.5914309  47.4538516
  17.8315165  93.0723912  44.8727931  17.7528796  92.7383776  45.7663689
  18.6524831  93.5645680  44.8719403  20.5293356  85.9385652  58.0804250
  20.4969676  85.0001652  58.2663933  21.1393980  86.0169688  57.3470074
  12.3676687  84.8081705  44.1231454  13.3135791  84.6787913  44.1919872
  11.9890932  84.0696366  44.6000882  20.6787844  82.7296695  58.1262533
  20.1626893  81.9455152  57.9392462  21.5627793  82.4015412  58.2909052
  18.3398571  76.4737711  54.0858345  18.1423392  76.1652799  54.9701677
  18.9498277  77.1999349  54.2156275  26.3469906  87.0001658  57.2210286
  27.0773294  86.7386947  57.7817990  25.7376851  86.2630380  57.2612354
  24.4285203  85.1409521  57.8184738  23.7018366  85.0065486  57.2101229
  24.0132490  85.4486350  58.6241456  12.2515379  88.8599451  65.5832111
  13.1718389  89.0378050  65.7772157  12.2164962  87.9155496  65.4311810
  10.5519604  82.7331681  44.0586339   9.6451059  82.4364794  44.1349052
  10.8295585  82.4361499  43.1920625   1.4697544  84.0538044  54.5085385
   1.1500329  83.2003353  54.2159759   0.9230972  84.2686622  55.2643353
   5.2477452  86.7700485  58.2254892   5.4663462  87.7017593  58.2442926
   5.6603226  86.4108460  59.0109696  12.1681670  77.2768571  50.2130580
  11.3582398  76.9315656  50.5885826  12.8566087  76.9676114  50.8018192
  14.0972218  76.3546617  51.8354877  14.6503256  76.7742071  52.4944900
  14.3342304  75.4282366  51.8777833  10.1205317  82.3433691  67.6157641
  10.0202044  83.2928048  67.5469732   9.9026859  82.0151930  66.7433711
   9.3218388  79.5918616  44.1998318  10.1837552  79.9173514  44.4594135
   9.5068733  78.8050112  43.6871384   1.3385804  87.6740956  56.4778507
   0.6449276  87.2594909  55.9648461   2.0858795  87.7161492  55.8811926
  17.4751025  78.4647143  51.3433541  16.8949694  79.1231947  50.9611593
  17.2086958  77.6424487  50.9320959  15.9254591  77.8652200  53.5454861
  16.4254370  77.9768735  52.7369180  16.5690199  77.5613253  54.1855670
   9.9836587  85.7730830  66.4322702   9.5003669  86.5731190  66.6386591
  10.0697526  85.7838775  65.4790146   3.2522547  87.6059210  54.3544522
   3.2293235  87.7046897  53.4026405   3.5623183  88.4524360  54.6761688
   5.9109925  89.6635365  58.4691136   6.8653178  89.6319307  58.4021068
   5.7122448  89.2025988  59.2841362   6.5009307  88.2336481  61.0361934
   7.3202196  88.7280559  61.0596771   6.7746114  87.3168449  61.0079501
  16.2575903  80.6247233  50.3989889  15.3701758  80.9096884  50.1810084
  16.6729892  80.4640996  49.5517166  19.6090439  80.6493754  54.1144229
  20.3850829  81.1390206  54.3868845  18.8838573  81.0751808  54.5716098
  22.0462998  81.3621373  55.1718169  22.6407489  81.1217109  54.4611477
  22.1189581  80.6428504  55.7991705  15.4019116  90.3891908  44.4937909
  16.1054967  90.5941910  45.1095565  14.6781765  90.9568670  44.7586993
  16.2316927  86.1401769  50.6140179  16.1752128  86.5970320  49.7747812
  16.7845269  85.3792453  50.4363022  20.0421733  81.9291501  51.4390299
  19.7858667  81.5288136  52.2698507  19.4174601  82.6435295  51.3140438
  24.3534070  84.6687574  53.9461590  23.7933628  84.7380763  54.7193152
  23.7477574  84.4928559  53.2261087  17.3105814  90.8274437  46.5436369
  18.1451418  90.3955635  46.3613844  17.1490157  90.6556451  47.4713264
  16.9651706  87.3306550  47.9092709  16.9100510  87.1650822  46.9681153
  16.3397761  88.0382583  48.0654898   1.7544221  82.5674615  61.7354131
   2.4003085  82.0573568  62.2241356   1.5461372  83.3043296  62.3097556
  14.2797613  89.6355462  67.2346271  15.1488773  89.8096114  66.8732906
  13.8004365  90.4549879  67.1122001  10.2747832  76.8314659  47.4878027
  10.2626501  77.7756499  47.6446298  11.1671253  76.6484805  47.1937488
   8.4483793  96.7552563  58.9135705   9.3511040  96.7876173  59.2302200
   8.2221164  95.8253014  58.9282041  10.2037395  95.5083550  55.5745784
   9.2533026  95.5085411  55.4610156  10.5069882  94.7616284  55.0581818
  14.0899951  73.4257436  51.7423964  13.3232347  72.8715922  51.8880646
  14.5010656  73.4979305  52.6038115   6.0941712  79.7142232  65.8329145
   6.9573174  79.3579036  66.0432470   5.5207123  79.3756126  66.5204549
  25.9390089 101.3444088  56.6391546  26.5768499 101.2250835  55.9354886
  25.8210932 102.2924932  56.6979498  22.7479795 101.2971516  56.5753071
  22.4098307 101.1812581  55.6873606  23.6169563 100.8962681  56.5554077
  20.4488075 100.0659763  45.9070011  20.7013595  99.5441285  45.1453474
  19.5112634  99.9025909  46.0096694  25.4931357  99.0695542  53.7144754
  26.2794447  98.6514965  53.3635171  25.7570062  99.9741634  53.8826403
  30.8939785  99.0070775  54.6177733  31.6264957  98.4369992  54.8515562
  30.1379140  98.6192375  55.0584238  22.5115904 101.4298016  51.8141075
  22.1474112 100.9028637  52.5253997  23.3683020 101.0396486  51.6407560
  28.4165205  92.7192349  59.0772341  28.0848530  93.5887760  58.8533556
  27.8210818  92.4028633  59.7566372  22.1521391  96.4587916  46.8102424
  22.3195794  97.3268153  47.1772895  21.9618560  96.6215198  45.8863713
  28.3093868  97.4387435  56.1565691  27.4010746  97.3702844  55.8624452
  28.2581464  97.9159380  56.9847517  22.1310612  98.9145574  47.7949090
  22.0110237  99.3602624  48.6334571  21.4363201  99.2630891  47.2362629
  22.3834734  98.8577081  64.1000589  21.6068068  99.4171001  64.0903453
  23.0225297  99.3433864  64.6215459  30.1755515  95.6403874  57.9343565
  29.5329895  95.9336407  57.2883360  29.6710443  95.5256794  58.7396762
  27.8295678  99.3867047  48.6229424  28.7413534  99.6194434  48.4477122
  27.3205325  99.9704091  48.0604503  22.4667516  98.7464281  59.6324274
  23.3128711  99.1703695  59.7758923  22.4066154  98.0897906  60.3262837
  25.6166961  96.4068650  61.2905448  25.3727893  97.1610710  60.7539723
  25.8926892  96.7853997  62.1252695  27.5705424 102.9507262  59.9682713
  27.7822319 103.5939022  59.2917094  27.5235172 102.1169579  59.5004643
  25.1731653  95.5625083  56.8719285  24.3116132  95.8606336  57.1636023
  25.1994088  95.7795482  55.9400318  20.9262109 100.2290426  50.0882656
  21.6286152 100.6811469  50.5556583  20.5942737  99.5874245  50.7162549
  19.3742470  98.8202182  64.4633866  18.7441131  99.5018463  64.6969262
  19.2678558  98.7085264  63.5187004  14.6687442  98.4873978  55.3899790
  13.8786496  98.7431507  54.9139900  15.1598690  99.3022316  55.4951830
  16.6202188  98.8518558  52.3483266  15.8233351  98.9637252  52.8666762
  16.3927780  99.1905210  51.4824157  36.7757245 102.1717966  54.4890042
  36.0220954 101.6025364  54.3334046  36.9104786 102.1380631  55.4360677
  18.6523213  93.1222948  66.8259117  18.2590158  92.5689147  67.5006761
  19.4689353  93.4333527  67.2165634  21.5691174  94.5380827  64.4179373
  22.3100887  95.1387980  64.3383836  21.8009097  93.7958465  63.8597416
  25.5148337  90.5661930  58.6943655  25.1712606  91.4563572  58.6182765
  25.8827299  90.3763588  57.8313240  25.4798619 100.5570541  47.2016090
  24.9645243 101.3275146  47.4404477  25.2075928  99.8835678  47.8249151
  23.0645730  95.4020242  52.2601328  22.2087327  95.0127093  52.0806967
  23.4772682  95.4812203  51.4001114  24.5944877  92.9366585  56.6592888
  24.0909673  92.8996721  55.8460693  24.8875484  93.8459328  56.7189545
  20.8387763  93.0205315  55.6659070  21.7040760  92.8248124  55.3064959
  20.9065272  92.7915667  56.5928427  30.4532894 103.3102896  49.1369263
  29.6762336 102.9714056  48.6924426  31.1324375 103.3155519  48.4624228
  25.2684923  98.4297633  49.0275871  24.9635058  98.7443783  49.8786014
  26.2215365  98.5079053  49.0703204  28.6924200 102.7836877  55.7935871
  28.0347875 103.4736139  55.8816000  29.4964600 103.1733309  56.1369858
  18.4450082  95.2507523  53.0375437  19.0193834  95.0282705  52.3048630
  19.0321065  95.3196218  53.7904038  27.5029659 101.1381250  53.8439813
  28.0161541 101.7711242  54.3461523  28.1530883 100.5382445  53.4783173
  18.7719669  97.2811984  47.0571322  17.9356981  97.6186671  47.3780597
  18.6324439  97.1460964  46.1198459  20.7472750  92.1248772  51.7650506
  20.0937162  91.8097789  51.1407121  20.7053224  91.5024512  52.4910329
  23.9810490  98.6130706  56.0898154  23.0633052  98.8345653  55.9319842
  24.3970634  98.6877016  55.2309861  24.7645538 100.0122121  51.2200834
  25.5117357 100.5243518  50.9107956  25.0337127  99.6906174  52.0805228
  27.2124375  97.0479237  53.2019623  26.4747132  96.5356624  53.5329866
  27.4651149  96.6079619  52.3902900  27.3136002  89.8255489  53.7961393
  27.6194879  88.9652853  53.5087308  28.0388607  90.4173110  53.5960386
  21.5857082 100.1209283  54.3037584  21.6405692  99.1683119  54.2280060
  20.7748284 100.2768722  54.7878882  19.5249442  98.7386342  52.0627962
  18.7117308  99.0380513  52.4693155  20.0208436  98.3442031  52.7802445
  25.1223654  99.2028167  60.8942856  25.4773041  99.4299640  61.7537322
  25.7695785  99.5346544  60.2720112  30.8521391 102.3246603  51.5992185
  30.7139289 102.5148199  50.6713375  30.4957609 103.0865985  52.0560237
  19.0163517  96.3104698  57.6789197  19.6562896  96.1693457  56.9812161
  18.1841047  96.0239211  57.3027799  30.8790770 104.3923130  56.6103457
  31.3127277 104.2998419  57.4586511  31.5922351 104.3680630  55.9723473
  16.0192133  96.2805023  52.4562184  16.2798951  97.1950356  52.3471345
  16.8409306  95.8129465  52.6058797  17.4917059  97.6942780  59.6261009
  18.1640112  97.4860142  58.9773658  16.6646845  97.4964866  59.1866241
  31.7406320 104.4346830  59.1436342  31.9342210 105.3392641  59.3895617
  31.6406938 103.9754249  59.9774927  23.3942631  94.3204721  61.6426670
  22.7470546  95.0194671  61.5491146  24.1643646  94.7540865  62.0102918
  23.5706765 102.1585486  59.7023489  24.4998825 102.3096645  59.5292457
  23.1497795 102.2469507  58.8472136  20.5226856 100.6805342  59.8747126
  21.2326475 100.0398534  59.8333744  20.4796165 100.9318237  60.7973306
  19.2355790  97.6670560  61.6942765  18.6993147  97.2161299  62.3464361
  18.6472499  97.8016469  60.9513229  18.6458049  97.1259212  44.2569229
  17.7687516  97.0048012  43.8931475  19.1215802  96.3345290  44.0048117
  14.9694912  96.8026568  58.7795760  14.8853100  96.1952237  58.0446169
  14.1477618  97.2935586  58.7805256  25.1418626  95.2880131  54.1465955
  25.6387325  94.5350094  53.8267025  24.3705607  95.3244448  53.5809164
  32.9948383 100.9920497  55.7884246  32.9838259 101.8745212  55.4178179
  32.1265762 100.6392048  55.5938783  21.7253594  97.4297514  53.8737639
  21.3551382  96.8768555  54.5618545  22.2212687  96.8255648  53.3212639
  29.6120958  99.8869138  52.2554412  30.0781410 100.7197129  52.1814715
  30.0628458  99.4214119  52.9599671  27.5837620  92.2549725  56.2945313
  26.6700700  92.4853952  56.4627520  28.0130722  92.3388169  57.1459346
  27.3544079 100.4439617  58.7945207  26.7015529 100.6915524  58.1397660
  27.7324459  99.6303755  58.4607685  23.4031652 101.1859428  65.2811245
  22.7272289 101.0853557  65.9513620  24.2259286 101.0298642  65.7447242
  17.1218928  94.8401505  60.1190745  17.1860254  95.7016336  59.7068143
  17.0586048  94.2275507  59.3863104  16.5971201  96.9124638  63.7663780
  17.2243239  96.5301715  64.3801304  15.7399119  96.6938840  64.1319472
  16.9030990  96.7957063  55.6809683  16.1817576  97.4093031  55.5417156
  17.6924246  97.3314828  55.6026329  19.7057304  94.1311490  61.9550335
  20.2291706  94.3773786  62.7176644  19.4869637  94.9631525  61.5353472
  15.1024585  96.4015164  49.8221460  14.7737291  95.5212543  49.6396565
  15.4563956  96.3462833  50.7097849  18.2166408  96.6888134  50.1896937
  18.5562481  97.2174055  49.4675546  18.6638528  97.0268540  50.9655504
  20.9109849  95.0725185  59.6400005  20.5706669  94.2732998  60.0420685
  20.2048855  95.3726896  59.0676838  21.5626321  92.1574497  58.0927328
  22.3852390  91.6834976  57.9706219  21.8064384  92.9364981  58.5926015
  20.2034555  95.1862756  48.3890230  20.9242918  95.5644009  47.8853947
  19.5799859  95.9051633  48.4925208  24.3465678  95.8907905  49.3248562
  24.5629292  96.7732543  49.0237390  23.8659745  95.4994118  48.5954204
  19.0864899  98.8493618  55.9019307  18.9409480  99.1633921  56.7943588
  18.6090103  99.4678518  55.3490206  20.9461282  95.8396166  55.9500196
  20.9322851  94.9437259  55.6132494  21.6633710  95.8466830  56.5838482
  22.7987413  96.2733506  57.9953324  22.5405191  97.1950577  57.9937654
  22.2672453  95.8763941  58.6853788  20.3498178  94.7210546  51.2187767
  20.4714089  93.7927192  51.4178654  20.0600221  94.7349232  50.3066082
  23.2189369  92.4065457  54.3554486  23.2411065  92.4704790  53.4006466
  23.6357428  91.5669965  54.5494993  33.5972993 102.1420716  52.3933709
  34.0404139 101.3928041  51.9952832  32.7199503 102.1330853  52.0107441
  19.8339258  96.2342544  65.4277699  19.8827413  97.1104666  65.0455469
  20.3761772  95.6919937  64.8549342  30.4391978 103.6276133  62.0211565
  30.4889983 103.4626141  62.9627088  30.3305902 102.7603392  61.6309446
  27.7295741  99.6107061  63.3370871  28.6305604  99.4713526  63.0454869
  27.8043715  99.7761516  64.2769049  22.0638546  96.9873916  62.1824058
  21.1941856  97.2807482  61.9106646  22.2998027  97.5714361  62.9031321
  33.1405858 103.6125955  54.7856157  33.9752749 104.0515759  54.9493717
  33.2764986 103.1364608  53.9664402  30.1897364 101.1705689  60.7333644
  30.6651485 101.3633336  59.9252496  29.2662929 101.2264875  60.4877028
  24.7677580  93.2053533  59.6989478  25.2859524  93.9414560  59.3735967
  24.4132713  93.5117526  60.5336237  16.3476518  98.0658214  47.8150884
  15.6545763  98.1402569  47.1590920  16.1028270  97.3018558  48.3372401
  25.0190174  89.6253816  55.2190375  25.2991928  88.9577005  55.8450801
  25.8040781  89.8182911  54.7065039  28.8899033  98.0471450  58.9661950
  29.8416455  98.1469547  58.9874174  28.7202483  97.2549718  59.4760034
  26.9113412  95.1327033  59.1521351  26.3163344  95.4132045  58.4567839
  26.6263109  95.6220934  59.9238092  31.3687110 101.2677569  58.0804250
  31.3363430 100.3293570  58.2663933  31.9787734 101.3461606  57.3470074
  23.2070441 100.1373622  44.1231454  24.1529546 100.0079830  44.1919872
  22.8284686  99.3988284  44.6000882  31.5181599  98.0588613  58.1262533
  31.0020647  97.2747069  57.9392462  32.4021547  97.7307329  58.2909052
  29.1792326  91.8029628  54.0858345  28.9817147  91.4944716  54.9701677
  29.7892031  92.5291267  54.2156275  37.1863660 102.3293576  57.2210286
  37.9167049 102.0678864  57.7817990  36.5770606 101.5922298  57.2612354
  35.2678957 100.4701439  57.8184738  34.5412121 100.3357404  57.2101229
  34.8526244 100.7778267  58.6241456  21.3913358  98.0623599  44.0586339
  20.4844814  97.7656711  44.1349052  21.6689339  97.7653417  43.1920625
  23.0075424  92.6060488  50.2130580  22.1976152  92.2607573  50.5885826
  23.6959841  92.2968032  50.8018192  24.9365972  91.6838535  51.8354877
  25.4897011  92.1033989  52.4944900  25.1736059  90.7574283  51.8777833
  20.9599072  97.6725609  67.6157641  20.8595799  98.6219966  67.5469732
  20.7420614  97.3443848  66.7433711  20.1612143  94.9210534  44.1998318
  21.0231307  95.2465432  44.4594135  20.3462487  94.1342030  43.6871384
  28.3144779  93.7939060  51.3433541  27.7343449  94.4523864  50.9611593
  28.0480712  92.9716405  50.9320959  26.7648346  93.1944118  53.5454861
  27.2648124  93.3060652  52.7369180  27.4083954  92.8905171  54.1855670
  27.0969657  95.9539151  50.3989889  26.2095513  96.2388801  50.1810084
  27.5123647  95.7932914  49.5517166  30.4484194  95.9785672  54.1144229
  31.2244584  96.4682124  54.3868845  29.7232328  96.4043726  54.5716098
  32.8856752  96.6913291  55.1718169  33.4801243  96.4509027  54.4611477
  32.9583336  95.9720421  55.7991705  27.0710681 101.4693687  50.6140179
  27.0145883 101.9262238  49.7747812  27.6239024 100.7084371  50.4363022
  30.8815487  97.2583418  51.4390299  30.6252421  96.8580054  52.2698507
  30.2568355  97.9727212  51.3140438  35.1927825  99.9979492  53.9461590
  34.6327383 100.0672681  54.7193152  34.5871328  99.8220476  53.2261087
  27.8045461 102.6598468  47.9092709  27.7494264 102.4942739  46.9681153
  27.1791516 103.3674501  48.0654898  21.1141586  92.1606577  47.4878027
  21.1020256  93.1048417  47.6446298  22.0065008  91.9776722  47.1937488
  24.9293705  88.7549353  51.7423964  24.1626101  88.2007840  51.8880646
  25.3404410  88.8271222  52.6038115  16.9335467  95.0434149  65.8329145
  17.7966928  94.6870954  66.0432470  16.3600877  94.7048044  66.5204549
  36.3542091 105.8953848  58.6943655  36.0106361 106.7855490  58.6182765
  36.7221054 105.7055506  57.8313240  38.1529757 105.1547407  53.7961393
  38.4588634 104.2944771  53.5087308  38.8782362 105.7465027  53.5960386
  35.8583929 104.9545733  55.2190375  36.1385682 104.2868922  55.8450801
  36.6434536 105.1474829  54.7065039  40.0186080 107.1321546  54.0858345
  39.8210901 106.8236634  54.9701677  40.6285786 107.8583185  54.2156275
  35.7687460 104.0841271  51.7423964  35.0019856 103.5299758  51.8880646
  36.1798165 104.1563140  52.6038115   4.2575983  33.1904336  41.2135349
   3.5039691  32.6211734  41.0579353   4.3923524  33.1567000  42.1605983
   0.6224595  34.6312324  41.5101463   1.4571487  35.0702128  41.6739024
   0.7583724  34.1550977  40.6909709   4.6682398  33.3479946  43.9455593
   5.3985786  33.0865234  44.5063296   4.0589343  32.6108668  43.9857661
   2.7497695  31.4887808  44.5430044   2.0230859  31.3543773  43.9346536
   2.3344982  31.7964637  45.3486762   2.6746563  31.0165861  40.6706897
   2.1146121  31.0859051  41.4438459   2.0690066  30.8406846  39.9506393
   4.2602581  47.6922375  43.3636853   4.8980991  47.5729123  42.6600193
   4.1423424  48.6403219  43.4224805   1.0692288  47.6449803  43.2998377
   0.7310799  47.5290868  42.4118912   1.9382056  47.2440968  43.2799384
   1.5512071  48.7984655  49.2584583   1.5400711  48.4037453  48.3865087
   1.7132710  48.0650728  49.8518354   2.5078662  53.1656247  34.6009733
   1.8566642  53.7510328  34.2143747   3.3023025  53.6962442  34.6604771
   3.8143850  45.4173829  40.4390061   4.6006939  44.9993252  40.0880478
   4.0782554  46.3219921  40.6071709   3.9853927  50.8546679  35.1378718
   3.3499760  50.9281306  35.8499622   3.6551333  51.4440278  34.4597797
   9.2152277  45.3549062  41.3423039   9.9477449  44.7848279  41.5760869
   8.4591633  44.9670663  41.7829545   6.7377697  39.0670636  45.8017648
   6.4061022  39.9366047  45.5778863   6.1423311  38.7506920  46.4811678
   3.2309217  51.2683182  45.2013561   2.9309940  52.1708221  45.0929368
   2.8860276  51.0015366  46.0534713   6.6306361  43.7865723  42.8810998
   5.7223238  43.7181131  42.5869759   6.5793956  44.2637667  43.7092823
   8.4968007  41.9882161  44.6588872   7.8542387  42.2814694  44.0128666
   7.9922935  41.8735081  45.4642069   6.1508171  45.7345334  35.3474731
   7.0626027  45.9672721  35.1722429   5.6417818  46.3182378  34.7849810
   4.4348938  50.1569962  48.9836024   4.8432294  49.7152372  48.2390656
   3.7126200  49.5822589  49.2370217   0.7880008  45.0942569  46.3569581
   1.6341203  45.5181982  46.5004230   0.7278646  44.4376193  47.0508144
   4.7577753  50.7171153  42.7388313   4.1286615  50.8816867  42.0364380
   4.3703415  51.1312762  43.5099277   8.6366985  51.6525590  40.0932676
   7.9518023  52.0324492  39.5429710   8.7210834  52.2620917  40.8264624
   3.9379454  42.7546937  48.0150754   3.6940386  43.5088998  47.4785030
   4.2139384  43.1332285  48.8498001   5.8917916  49.2985549  46.6928020
   6.1034812  49.9417309  46.0162401   5.8447665  48.4647866  46.2249950
   3.4944145  41.9103370  43.5964592   2.6328624  42.2084624  43.8881330
   3.5206580  42.1273769  42.6645625   7.0063744  52.1757505  44.8650377
   7.8281188  51.7737692  44.5833059   7.0026147  52.0725739  45.8166493
  15.0969737  48.5196253  41.2135349  14.3433446  47.9503651  41.0579353
  15.2317279  48.4858918  42.1605983   2.1136842  54.0133222  51.0190410
   1.6700696  53.2269601  50.7011315   2.7754055  54.2012373  50.3534301
   4.2118080  54.2936022  49.0471811   4.1936555  55.1144903  48.5552081
   5.1338000  54.1690097  49.2721953   3.8360829  36.9140218  45.4188961
   3.4925098  37.8041859  45.3428072   4.2039792  36.7241875  44.5558546
   3.8011112  46.9048829  33.9261397   3.2857735  47.6753433  34.1649784
   3.5288420  46.2313965  34.5494458   1.3858223  41.7498529  38.9846635
   0.5299819  41.3605380  38.8052274   1.7985175  41.8290490  38.1246421
   2.9157369  39.2844873  43.3838195   2.4122165  39.2475008  42.5706000
   3.2087976  40.1937615  43.4434851   8.7745386  49.6581183  35.8614570
   7.9974829  49.3192343  35.4169732   9.4536867  49.6633806  35.1869535
   3.5897415  44.7775921  35.7521178   3.2847550  45.0922070  36.6031321
   4.5427857  44.8557341  35.7948511   2.0343847  50.9366144  37.4014132
   1.5065208  50.2018904  37.0887369   1.5331349  51.7140820  37.1554100
   7.0136693  49.1315165  42.5181178   6.3560367  49.8214426  42.6061307
   7.8177092  49.5211596  42.8615164   5.8242152  47.4859537  40.5685120
   6.3374033  48.1189529  41.0706830   6.4743375  46.8860733  40.2028480
   3.0864526  57.4643861  33.3245791   2.4126225  57.7675558  33.9330749
   3.4730348  58.2672942  32.9751248   2.3022982  44.9608993  42.8143460
   1.3845544  45.1823940  42.6565148   2.7183126  45.0355303  41.9555168
   3.0858030  46.3600408  37.9446141   3.8329849  46.8721806  37.6353263
   3.3549620  46.0384461  38.8050534   6.5903948  52.4665539  38.6964262
   6.1366275  51.6256449  38.7529453   5.9597914  53.1026937  39.0339043
   5.5336867  43.3957525  39.9264930   4.7959624  42.8834911  40.2575172
   5.7863641  42.9557906  39.1148207   5.0336887  54.3042035  39.6314081
   5.3259861  54.8647092  38.9126446   5.5435508  54.5970596  40.3867240
   5.6348495  36.1733777  40.5206699   5.9407371  35.3131140  40.2332614
   6.3601099  36.7651397  40.3205693   1.0560768  50.3967693  32.2661173
   0.6180198  49.6803552  31.8066811   1.7971209  50.6243808  31.7046265
   3.4436146  45.5506454  47.6188163   3.7985534  45.7777927  48.4782629
   4.0908277  45.8824831  46.9965418   9.1733883  48.6724890  38.3237492
   9.0351782  48.8626486  37.3958681   8.8170102  49.4344273  38.7805543
   9.2003263  50.7401417  43.3348764   9.6339769  50.6476706  44.1831818
   9.9134843  50.7158917  42.6968780   2.9331157  54.3403511  44.8681864
   2.9868180  54.9094447  45.6359580   2.0645939  54.5105396  44.5035901
  10.0618812  50.7825118  45.8681649  10.2554702  51.6870928  46.1140924
   9.9619430  50.3232537  46.7020234   1.7155123  40.6683008  48.3671976
   1.0683038  41.3672958  48.2736453   2.4856138  41.1019152  48.7348224
   5.1233921  50.9331860  51.4422530   4.9719427  50.7042412  50.5252613
   5.1138600  51.8902462  51.4553875   1.8919257  48.5063773  46.4268796
   2.8211317  48.6574933  46.2537763   1.4710287  48.5947794  45.5717443
   1.2855741  57.6323534  35.5392870   1.4607497  57.1611577  36.3538493
   0.5988529  58.2589300  35.7674131   2.2412804  51.9096040  41.5856171
   1.9062637  51.8696810  42.4813821   1.7416750  51.2440756  41.1126582
   5.1771996  49.2552074  31.8593231   4.5601166  48.5298903  31.7626284
   4.7088484  50.0161435  31.5160305   6.8326127  53.9650983  49.5199011
   6.7738674  53.2810203  48.8529594   7.2345646  54.7069973  49.0679637
   6.8343535  51.9290567  47.7512991   5.9470313  51.5916489  47.8739390
   7.4042086  51.1973598  47.9881756   3.4631118  41.6358419  40.8711261
   3.9599817  40.8828381  40.5512331   2.6918099  41.6722735  40.3054471
  11.3160875  47.3398784  42.5129553  11.3050751  48.2223500  42.1423486
  10.4478255  46.9870335  42.3184090   2.8243372  56.4878853  46.8732393
   3.5371344  57.1226318  46.8008294   2.3333400  56.5842719  46.0572395
   4.5460899  50.3930106  38.4449685   3.6117177  50.5131568  38.2754389
   4.7237567  49.4902573  38.1809694   7.9333450  46.2347425  38.9799719
   8.3993902  47.0675417  38.9060021   8.3840950  45.7692407  39.6844977
   6.0009681  52.5791246  35.9785871   6.2769525  52.4647841  36.8879745
   5.1314180  52.1808731  35.9398044   5.9050113  38.6028012  43.0190620
   4.9913192  38.8332239  43.1872827   6.3343214  38.6866456  43.8704652
   5.6756571  46.7917904  45.5190514   5.0228021  47.0393812  44.8642967
   6.0536951  45.9782042  45.1852991   2.6363745  56.8277597  39.6218684
   2.8186140  56.0099253  40.0846437   3.4596731  57.0445290  39.1843574
   2.9705911  55.7545782  36.8833733   3.4993677  55.2438237  36.2703895
   3.2334130  55.4388313  37.7479266   1.7244144  47.5337715  52.0056551
   1.0484781  47.4331844  52.6758926   2.5471778  47.3776929  52.4692548
   5.3177801  53.6665900  52.0962822   5.8617705  54.2795858  51.6017776
   4.7364646  54.2245479  52.6129835   3.6035314  56.7886618  43.2277849
   3.4786454  55.9876358  42.7188795   4.2614405  57.2832811  42.7391819
   5.6670223  54.5895638  44.8557399   4.7200558  54.4700989  44.7835726
   6.0152996  53.7018136  44.9383661   2.6716656  54.3848354  41.0561752
   2.5241618  53.4565062  41.2369322   3.4970149  54.4068445  40.5718827
   6.2750778  55.2076913  42.1426624   7.1997325  55.0019774  42.0051076
   6.1066081  54.9593314  43.0515966   2.6678170  42.2386192  36.0493869
   2.8841785  43.1210830  35.7482697   2.1872237  41.8472405  35.3199511
   1.1199905  42.6211793  44.7198630   0.8617683  43.5428864  44.7182961
   0.5884946  42.2242228  45.4099095   6.0646094  55.7262581  37.4988716
   6.2382972  55.1609003  36.7462568   6.5574985  56.5263475  37.3168206
   1.5401861  38.7543744  41.0799793   1.5623558  38.8183077  40.1251773
   1.9569920  37.9148253  41.2740299  11.9185485  48.4899004  39.1179016
  12.3616631  47.7406329  38.7198139  11.0411996  48.4809140  38.7352748
   7.0521267  55.0429345  34.5985614   7.7472171  55.6636038  34.8172929
   7.3944417  54.1924696  34.8737992   8.9512690  52.4929051  36.1272945
   9.4764014  52.8316323  35.4022265   8.8635042  51.5576066  35.9436080
   0.6132738  56.4063124  48.2562822   0.9219865  56.1612271  49.1285521
   1.4108220  56.6109763  47.7681692   8.6406596  53.1261954  51.4324143
   7.8502139  53.1086093  50.8928642   8.4039950  53.6650248  52.1873179
   8.7604471  49.9754421  48.7456871   8.8102476  49.8104428  49.6872394
   8.6518394  49.1081680  48.3554752   6.0508233  45.9585349  50.0616178
   6.9518096  45.8191813  49.7700176   6.1256208  46.1239803  51.0014356
  10.2622668  52.3951362  48.9898893   9.9707476  52.7581343  49.8262354
   9.6494799  51.6818370  48.8112225  11.4618350  49.9604242  41.5101463
  12.2965241  50.3994046  41.6739024  11.5977479  49.4842895  40.6909709
   8.5109856  47.5183977  47.4578951   8.9863977  47.7111623  46.6497802
   7.5875421  47.5743163  47.2122335   3.0890072  39.5531820  46.4234785
   3.6072016  40.2892847  46.0981273   2.7345205  39.8595814  47.2581544
   3.3402666  35.9732103  41.9435681   3.6204420  35.3055292  42.5696108
   4.1253273  36.1661198  41.4310345   1.1436135  55.1491097  33.5060708
   0.5710102  55.7681284  33.0531180   1.7168929  55.6990458  34.0400630
   7.2111525  44.3949737  45.6907257   8.1628948  44.4947834  45.7119481
   7.0414975  43.6028005  46.2005341   5.2325904  41.4805320  45.8766657
   4.6375836  41.7610333  45.1813146   4.9475601  41.9699221  46.6483399
   4.3633395  55.4328247  34.6369290   5.2964068  55.3673808  34.8402166
   4.2756608  56.2684514  34.1783823   6.9921411  54.7494117  31.5973238
   6.9135043  54.4153981  32.4908996   7.8131078  55.2415885  31.5964710
   9.6899603  47.6155856  44.8049556   9.6575923  46.6771857  44.9909240
  10.3000226  47.6939893  44.0715381   1.5282933  46.4851909  30.8476760
   2.4742038  46.3558118  30.9165178   1.1497178  45.7466571  31.3246188
   9.8394091  44.4066900  44.8507839   9.3233140  43.6225357  44.6637768
  10.7234040  44.0785617  45.0154359   7.5004818  38.1507915  40.8103652
   7.3029639  37.8423004  41.6946984   8.1104524  38.8769554  40.9401582
  15.5076152  48.6771863  43.9455593  16.2379541  48.4157151  44.5063296
  14.8983098  47.9400585  43.9857661  13.5891450  46.8179726  44.5430044
  12.8624613  46.6835691  43.9346536  13.1738736  47.1256554  45.3486762
   1.4121626  50.5369656  52.3077417   2.3324635  50.7148255  52.5017464
   1.3771209  49.5925701  52.1557116   1.3287916  38.9538776  36.9375887
   0.5188645  38.6085861  37.3131133   2.0172333  38.6446319  37.5263498
   3.2578465  38.0316822  38.5600183   3.8109503  38.4512276  39.2190207
   3.4948551  37.1052570  38.6023139   6.6357272  40.1417347  38.0678848
   6.0555941  40.8002152  37.6856900   6.3693204  39.3194692  37.6566265
   5.0860838  39.5422405  40.2700168   5.5860616  39.6538940  39.4614487
   5.7296446  39.2383458  40.9100976   5.4182150  42.3017438  37.1235196
   4.5308005  42.5867089  36.9055391   5.8336139  42.1411201  36.2762473
   8.7696686  42.3263959  40.8389535   9.5457076  42.8160411  41.1114152
   8.0444820  42.7522013  41.2961405  11.2069245  43.0391578  41.8963476
  11.8013735  42.7987314  41.1856784  11.2795828  42.3198709  42.5237012
   4.5625363  52.0662113  31.2183216   5.2661213  52.2712115  31.8340872
   3.8388012  52.6338874  31.4832299   5.3923173  47.8171974  37.3385486
   5.3358375  48.2740525  36.4993118   5.9451516  47.0562658  37.1608329
   9.2027979  43.6061706  38.1635606   8.9464914  43.2058341  38.9943813
   8.5780847  44.3205500  38.0385745  13.5140317  46.3457779  40.6706897
  12.9539875  46.4150968  41.4438459  12.9083821  46.1698764  39.9506393
   6.4712061  52.5044642  33.2681676   7.3057665  52.0725840  33.0859151
   6.3096404  52.3326655  34.1958570   6.1257953  49.0076755  34.6338015
   6.0706757  48.8421026  33.6926459   5.5004008  49.7152788  34.7900205
   3.4403860  51.3125667  53.9591578   4.3095020  51.4866319  53.5978213
   2.9610611  52.1320084  53.8367307   3.2506198  35.1027641  38.4669270
   2.4838594  34.5486127  38.6125953   3.6616903  35.1749509  39.3283422
  15.0996336  63.0214293  43.3636853  15.7374746  62.9021040  42.6600193
  14.9817179  63.9695137  43.4224805  11.9086042  62.9741721  43.2998377
  11.5704554  62.8582786  42.4118912  12.7775810  62.5732886  43.2799384
   7.7672858  64.8277197  39.2895268   7.2037723  64.7367134  38.5211556
   7.6525253  64.0077102  39.7697761  12.3905825  64.1276573  49.2584583
  12.3794466  63.7329371  48.3865087  12.5526464  63.3942645  49.8518354
   5.3137290  66.3228389  42.1279489   6.1058582  65.9819214  41.7125788
   5.5533940  66.4323364  43.0481642  13.3472416  68.4948165  34.6009733
  12.6960396  69.0802245  34.2143747  14.1416779  69.0254360  34.6604771
   7.2728044  65.5837302  34.9996868   8.0458920  65.0366289  34.8609743
   7.6253442  66.4481552  35.2111329   9.1113086  66.9113684  48.2063767
   8.8202952  67.8159315  48.0910433   9.7470070  66.9530212  48.9207836
  10.0369293  64.2890533  44.7965127  10.6332865  64.0646555  44.0822089
  10.0944265  63.5475278  45.3990574   9.6094321  61.7429968  32.6315318
   9.8619842  61.2211490  31.8698781   8.6718880  61.5796114  32.7342001
  14.6537604  60.7465747  40.4390061  15.4400693  60.3285170  40.0880478
  14.9176309  61.6511839  40.6071709  14.8247682  66.1838597  35.1378718
  14.1893515  66.2573224  35.8499622  14.4945088  66.7732196  34.4597797
  20.0546031  60.6840980  41.3423039  20.7871203  60.1140197  41.5760869
  19.2985387  60.2962580  41.7829545   9.3290610  63.6458074  34.8339692
   9.2126868  62.9702978  35.5020777   9.4392870  63.1590448  34.0171846
  11.6722151  63.1068221  38.5386382  11.3080358  62.5798842  39.2499303
  12.5289267  62.7166690  38.3652867  17.5771452  54.3962554  45.8017648
  17.2454776  55.2657965  45.5778863  16.9817065  54.0798838  46.4811678
  11.3127638  58.1358121  33.5347730  11.4802040  59.0038358  33.9018201
  11.1224807  58.2985403  32.6109019  14.0702971  66.5975100  45.2013561
  13.7703694  67.5000139  45.0929368  13.7254031  66.3307283  46.0534713
   7.5215453  63.0488897  41.2350265   6.5965949  62.9165111  41.4427957
   7.7699866  63.8283116  41.7320207  17.4700115  59.1157640  42.8810998
  16.5616992  59.0473049  42.5869759  17.4187711  59.5929585  43.7092823
  11.2916859  60.5915779  34.5194397  11.1716484  61.0372829  35.3579877
  10.5969447  60.9401096  33.9607935   4.8824264  62.6922170  42.0694054
   5.0116645  62.9456649  42.9833466   4.2021715  63.2849878  41.7498709
   9.0523751  73.3619420  38.1684528   8.9747781  74.3127245  38.2473009
   8.4485395  73.0165293  38.8259455  11.5440981  60.5347286  50.8245895
  10.7674315  61.0941206  50.8148760  12.1831544  61.0204069  51.3460765
  19.3361761  57.3174079  44.6588872  18.6936142  57.6106612  44.0128666
  18.8316690  57.2026999  45.4642069  16.9901925  61.0637252  35.3474731
  17.9019781  61.2964639  35.1722429  16.4811572  61.6474296  34.7849810
   9.7987353  63.3432739  50.3863862  10.5402037  63.8817783  50.1098686
   9.0924339  63.9699028  50.5435414  15.2742693  65.4861880  48.9836024
  15.6826049  65.0444290  48.2390656  14.5519954  64.9114507  49.2370217
  11.6273763  60.4234486  46.3569581  12.4734958  60.8473900  46.5004230
  11.5672400  59.7668111  47.0508144  15.5971507  66.0463070  42.7388313
  14.9680370  66.2108784  42.0364380  15.2097169  66.4604680  43.5099277
  19.4760739  66.9817508  40.0932676  18.7911777  67.3616409  39.5429710
  19.5604589  67.5912835  40.8264624  14.7773208  58.0838855  48.0150754
  14.5334140  58.8380915  47.4785030  15.0533139  58.4624202  48.8498001
  16.7311671  64.6277467  46.6928020  16.9428566  65.2709227  46.0162401
  16.6841419  63.7939784  46.2249950  14.3337900  57.2395288  43.5964592
  13.4722379  57.5376541  43.8881330  14.3600334  57.4565687  42.6645625
  11.1499469  65.7837478  40.0038398  11.6137815  66.0625181  39.2143020
  10.8856267  64.8820923  39.8211488   8.0423550  65.3308960  42.9418161
   8.6124907  65.7596228  42.3035645   8.6331662  65.0491545  43.6402347
  10.0868355  61.9060631  36.8127963  10.7892399  62.3581674  37.2801889
   9.7548984  61.2644450  37.4407856   8.5348717  60.4972387  51.1879172
   7.9047377  61.1788668  51.4214569   8.4284805  60.3855469  50.2432310
   3.8293689  60.1644183  42.1145096   3.0392743  60.4201712  41.6385207
   4.3204937  60.9792521  42.2197137  17.8457499  67.5049423  44.8650377
  18.6674943  67.1029610  44.5833059  17.8419902  67.4017657  45.8166493
   5.7808435  60.5288763  39.0728573   4.9839598  60.6407457  39.5912069
   5.5534027  60.8675415  38.2069464  11.6114102  67.0533466  47.0211088
  11.6758535  67.5153873  47.8569260  10.9025026  66.4230831  47.1493398
   2.1131392  60.4174674  44.5460087   2.3639431  61.3021684  44.8117663
   2.6490941  60.2379275  43.7735179  25.9363492  63.8488171  41.2135349
  25.1827200  63.2795569  41.0579353  26.0711033  63.8150836  42.1605983
  11.3262120  68.7201573  36.8890068  11.1907795  69.5653109  37.3174916
  11.8671932  68.9220851  36.1256002   7.8129460  54.7993153  53.5504423
   7.4196405  54.2459352  54.2252067   8.6295600  55.1103732  53.9410941
   4.7791517  66.2377011  37.4617993   5.2916038  67.0320262  37.6123558
   5.4314230  65.5403302  37.3951595   6.5886402  69.3542768  39.5440746
   6.7653030  70.2760732  39.3561730   7.3843236  69.0401187  39.9735126
  10.7297421  56.2151032  51.1424680  11.4707134  56.8158185  51.0629142
  10.9615343  55.4728670  50.5842722   5.8738759  61.4007400  49.4202909
   5.7592274  60.4992657  49.7210008   5.0183276  61.6471096  49.0687726
  12.9530596  69.3425140  51.0190410  12.5094451  68.5561518  50.7011315
  13.6147810  69.5304290  50.3534301   7.7117717  70.8720941  45.5451089
   8.2625143  70.7438005  44.7728083   6.8729193  71.1715830  45.1945981
  15.0511834  69.6227940  49.0471811  15.0330310  70.4436821  48.5552081
  15.9731754  69.4982015  49.2721953  11.5084889  67.1372069  49.8895320
  12.0413225  66.3760357  49.6594628  10.9798970  66.8445721  50.6319474
  14.6754584  52.2432135  45.4188961  14.3318853  53.1333777  45.3428072
  15.0433546  52.0533793  44.5558546   2.7440434  64.5665666  38.2377564
   3.5815656  64.9762674  38.0211271   2.9218702  63.6265108  38.2077758
  14.6404866  62.2340746  33.9261397  14.1251490  63.0045351  34.1649784
  14.3682175  61.5605882  34.5494458  12.2251977  57.0790447  38.9846635
  11.3693574  56.6897297  38.8052274  12.6378929  57.1582408  38.1246421
  13.7551124  54.6136790  43.3838195  13.2515919  54.5766926  42.5706000
  14.0481731  55.5229533  43.4434851   9.9994010  54.6975520  42.3904376
  10.8647007  54.5018329  42.0310266  10.0671519  54.4685872  43.3173733
  19.6139140  64.9873101  35.8614570  18.8368583  64.6484260  35.4169732
  20.2930621  64.9925724  35.1869535  14.4291169  60.1067838  35.7521178
  14.1241305  60.4213988  36.6031321  15.3821612  60.1849258  35.7948511
  12.8737601  66.2658062  37.4014132  12.3458963  65.5310821  37.0887369
  12.3725104  67.0432738  37.1554100  17.8530447  64.4607082  42.5181178
  17.1954122  65.1506344  42.6061307  18.6570846  64.8503514  42.8615164
   7.6056329  56.9277728  39.7620743   8.1800081  56.7052909  39.0293936
   8.1927311  56.9966423  40.5149345  16.6635906  62.8151455  40.5685120
  17.1767788  63.4481447  41.0706830  17.3137130  62.2152650  40.2028480
   7.9325916  58.9582189  33.7816629   7.0963228  59.2956876  34.1025903
   7.7930686  58.8231169  32.8443766   9.9078997  53.8018977  38.4895813
   9.2543409  53.4867994  37.8652427   9.8659471  53.1794717  39.2155636
  11.0190201  64.0838272  30.4049105  10.1117263  63.8527525  30.6040254
  11.5161233  63.2875891  30.5923086  13.9258280  72.7935779  33.3245791
  13.2519979  73.0967476  33.9330749  14.3124102  73.5964860  32.9751248
  13.1416737  60.2900910  42.8143460  12.2239298  60.5115857  42.6565148
  13.5576881  60.3647221  41.9555168  13.9251785  61.6892326  37.9446141
  14.6723604  62.2013723  37.6353263  14.1943374  61.3676379  38.8050534
  12.1978435  64.1850867  34.9273095  11.2889654  63.9009900  35.0245565
  12.2273519  64.6049945  34.0676402  17.4297702  67.7957456  38.6964262
  16.9760029  66.9548366  38.7529453  16.7991669  68.4318855  39.0339043
  16.3730622  58.7249442  39.9264930  15.6353379  58.2126829  40.2575172
  16.6257395  58.2849824  39.1148207  15.8730642  69.6333953  39.6314081
  16.1653616  70.1939010  38.9126446  16.3829262  69.9262514  40.3867240
  16.4742249  51.5025694  40.5206699  16.7801126  50.6423058  40.2332614
  17.1994854  52.0943315  40.3205693   2.7666605  61.9056381  38.9088297
   2.5691005  61.3125742  38.1839364   2.2113269  61.6008591  39.6264236
  10.7463329  61.7979487  41.0282890  10.8011939  60.8453324  40.9525367
   9.9354531  61.9538927  41.5124189  11.8954523  65.7259611  32.2661173
  11.4573953  65.0095469  31.8066811  12.6364964  65.9535725  31.7046265
   8.6855689  60.4156547  38.7873269   7.8723554  60.7150718  39.1938461
   9.1814683  60.0212236  39.5047751  10.8364267  70.4114304  40.7207534
  10.7940446  70.6375150  39.7916066  11.7526966  70.1777679  40.8693335
  14.2829901  60.8798372  47.6188163  14.6379288  61.1069845  48.4782629
  14.9302032  61.2116748  46.9965418  20.0127637  64.0016808  38.3237492
  19.8745536  64.1918404  37.3958681  19.6563856  64.7636190  38.7805543
   8.1769764  57.9874903  44.4034504   8.8169143  57.8463662  43.7057467
   7.3447294  57.7009416  44.0273106  20.0397017  66.0693335  43.3348764
  20.4733524  65.9768624  44.1831818  20.7528598  66.0450835  42.6968780
   8.9530067  67.2877333  40.5169497   9.7470666  66.7927653  40.3152071
   8.2421760  66.7595196  40.1537202  13.7724912  69.6695429  44.8681864
  13.8261934  70.2386365  45.6359580  12.9039693  69.8397314  44.5035901
   5.2612831  61.4320415  36.5929249   4.3310419  61.3704870  36.8099211
   5.3570303  60.9096368  35.7965890   5.1798380  57.9575228  39.1807491
   5.4405197  58.8720561  39.0716651   6.0015552  57.4899670  39.3304104
   6.6523305  59.3712985  46.3506315   7.3246359  59.1630347  45.7018964
   5.8253092  59.1735071  45.9111548  20.9012567  66.1117035  45.8681649
  21.0948457  67.0162846  46.1140924  20.8013185  65.6524454  46.7020234
  12.5548877  55.9974926  48.3671976  11.9076792  56.6964875  48.2736453
  13.3249893  56.4311070  48.7348224  15.9627675  66.2623778  51.4422530
  15.8113182  66.0334330  50.5252613  15.9532355  67.2194379  51.4553875
  12.7313012  63.8355691  46.4268796  13.6605072  63.9866850  46.2537763
  12.3104042  63.9239712  45.5717443  11.5301343  67.8606355  44.1967334
  11.3912429  67.4925140  45.0693272  10.7415940  68.3753995  44.0251291
  12.1249495  72.9615452  35.5392870  12.3001251  72.4903495  36.3538493
  11.4382283  73.5881218  35.7674131  13.0806559  67.2387958  41.5856171
  12.7456391  67.1988728  42.4813821  12.5810504  66.5732674  41.1126582
   7.0550803  62.6455588  47.1108753   6.9170601  61.9135827  47.7120292
   7.9655726  62.5564488  46.8292940  16.0165750  64.5843992  31.8593231
  15.3994921  63.8590820  31.7626284  15.5482239  65.3453352  31.5160305
   9.6833103  62.3575547  46.5992432  10.3932722  61.7168739  46.5579051
   9.6402411  62.6088442  47.5218613  17.6719882  69.2942901  49.5199011
  17.6132428  68.6102121  48.8529594  18.0739400  70.0361891  49.0679637
   8.3962037  59.3440765  48.4188072   7.8599394  58.8931504  49.0709668
   7.8078746  59.4786674  47.6758536   6.6910581  76.1104814  42.3132730
   6.9307179  76.7423339  42.9911749   5.8479777  75.7592854  42.5998090
   7.8064296  58.8029416  30.9814535   6.9293763  58.6818217  30.6176782
   8.2822049  58.0115495  30.7293424  17.6737289  67.2582484  47.7512991
  16.7864068  66.9208406  47.8739390  18.2435840  66.5265516  47.9881756
   4.1301158  58.4796773  45.5041066   4.0459347  57.8722442  44.7691476
   3.3083865  58.9705791  45.5050563  11.2038443  71.9183937  44.7174234
  11.1308614  72.7238908  45.2293539  10.7615836  72.1175903  43.8922256
  10.9928222  71.1555707  38.2277056  10.2095744  71.6977387  38.3215280
  11.6920967  71.6729686  38.6271297  14.3024872  56.9650336  40.8711261
  14.7993572  56.2120299  40.5512331  13.5311854  57.0014653  40.3054471
  22.1554630  62.6690702  42.5129553  22.1444506  63.5515417  42.1423486
  21.2872009  62.3162253  42.3184090  13.6637126  71.8170771  46.8732393
  14.3765098  72.4518236  46.8008294  13.1727155  71.9134637  46.0572395
  15.3854653  65.7222024  38.4449685  14.4510932  65.8423486  38.2754389
  15.5631321  64.8194490  38.1809694  10.8859841  59.1067719  40.5982946
  10.5157629  58.5538760  41.2863851  11.3818934  58.5025853  40.0457946
  18.7727204  61.5639343  38.9799719  19.2387657  62.3967334  38.9060021
  19.2234705  61.0984324  39.6844977   8.7149040  69.5665214  47.6937964
   9.4158499  70.2001697  47.8467358   8.2444155  69.9079946  46.9333603
  16.8403435  67.9083164  35.9785871  17.1163279  67.7939759  36.8879745
  15.9707934  67.5100649  35.9398044  16.7443867  53.9319930  43.0190620
  15.8306947  54.1624157  43.1872827  17.1736969  54.0158374  43.8704652
  16.5150326  62.1209822  45.5190514  15.8621776  62.3685729  44.8642967
  16.8930706  61.3073960  45.1852991  13.4757499  72.1569515  39.6218684
  13.6579894  71.3391171  40.0846437  14.2990486  72.3737207  39.1843574
  13.8099665  71.0837700  36.8833733  14.3387431  70.5730155  36.2703895
  14.0727885  70.7680230  37.7479266  12.5637899  62.8629633  52.0056551
  11.8878536  62.7623762  52.6758926  13.3865533  62.7068847  52.4692548
   4.3116758  69.1001569  44.6269066   4.8970195  68.3545257  44.7596971
   4.1141596  69.4105526  45.5105730   7.1655413  72.1352817  39.6431509
   6.4965788  72.6198944  39.1595549   7.0268283  72.3822037  40.5574887
  11.3060682  74.1696560  46.2414167  11.8578990  74.3328182  47.0063252
  11.6466875  74.7600998  45.5694192   6.2825175  56.5171710  46.8436052
   6.3466501  57.3786541  46.4313450   6.2192295  55.9045712  46.1108410
   5.7577447  58.5894843  50.4909086   6.3849486  58.2071920  51.1046610
   4.9005366  58.3709045  50.8564779  16.1571556  68.9957818  52.0962822
  16.7011460  69.6087776  51.6017776  15.5758401  69.5537396  52.6129835
   2.5342990  60.3971272  36.4227441   2.8296431  59.4881950  36.3694495
   1.6331026  60.3759011  36.1008443  14.4429069  72.1178536  43.2277849
  14.3180208  71.3168276  42.7188795  15.1008160  72.6124729  42.7391819
   6.0637237  58.4727268  42.4054990   5.3423823  59.0863236  42.2662463
   6.8530493  59.0085033  42.3271636  16.5063977  69.9187556  44.8557399
  15.5594313  69.7992907  44.7835726  16.8546750  69.0310054  44.9383661
   8.8663551  55.8081695  48.6795641   9.3897952  56.0543991  49.4421951
   8.6475884  56.6401730  48.2598779   4.2630832  58.0785369  36.5466766
   3.9343538  57.1982748  36.3641872   4.6170202  58.0233038  37.4343155
  13.5110410  69.7140272  41.0561752  13.3635373  68.7856980  41.2369322
  14.3363904  69.7360363  40.5718827   7.3772655  58.3658339  36.9142244
   7.7168727  58.8944260  36.1920852   7.8244775  58.7038745  37.6900810
  17.1144532  70.5368831  42.1426624  18.0391080  70.3311692  42.0051076
  16.9459836  70.2885232  43.0515966  10.0716096  56.7495390  46.3645312
   9.7312916  55.9503203  46.7665992   9.3655102  57.0497101  45.7922145
  10.7232567  53.8344702  44.8172635  11.5458637  53.3605181  44.6951525
  10.9670631  54.6135186  45.3171321   9.3640802  56.8632961  35.1135537
  10.0849164  57.2414214  34.6099253   8.7406106  57.5821838  35.2170515
  13.5071925  57.5678110  36.0493869  13.7235539  58.4502748  35.7482697
  13.0265992  57.1764323  35.3199511   8.2471146  60.5263823  42.6264614
   8.1015727  60.8404126  43.5188895   7.7696350  61.1448723  42.0735512
  10.1067529  57.5166371  42.6745503  10.0929098  56.6207464  42.3377801
  10.8239957  57.5237035  43.3083789  11.9593660  57.9503711  44.7198630
  11.7011438  58.8720782  44.7182961  11.4278700  57.5534146  45.4099095
  16.9039849  71.0554498  37.4988716  17.0776726  70.4900921  36.7462568
  17.3968740  71.8555393  37.3168206   2.7216808  63.0669167  45.5652275
   2.1770276  63.8428975  45.6972549   3.5996158  63.4139972  45.4071396
   9.5104425  56.3980751  37.9433073   9.6320336  55.4697397  38.1423961
   9.2206467  56.4119437  37.0311389  12.3795615  54.0835662  41.0799793
  12.4017312  54.1474995  40.1251773  12.7963674  53.2440170  41.2740299
  22.7579240  63.8190921  39.1179016  23.2010386  63.0698246  38.7198139
  21.8805750  63.8101058  38.7352748  17.8915021  70.3721263  34.5985614
  18.5865926  70.9927955  34.8172929  18.2338171  69.5216614  34.8737992
   3.5082830  62.1939064  48.4582432   2.7664566  62.3421699  49.0447062
   3.1875574  62.4547329  47.5949181  19.7906444  67.8220968  36.1272945
  20.3157768  68.1608241  35.4022265  19.7028797  66.8867984  35.9436080
  11.4526493  71.7355042  48.2562822  11.7613619  71.4904189  49.1285521
  12.2501975  71.9401680  47.7681692  11.4747105  73.8892951  40.4868198
  11.0352095  73.3969330  41.1801055  12.2255222  73.3465919  40.2460273
   3.9539444  70.0804492  40.4892826   4.7797464  69.7808264  40.1091470
   3.6033496  69.3112115  40.9382615   8.9220977  69.4330961  42.5590500
   8.3000986  68.7701666  42.2592728   9.5925844  69.4592092  41.8764148
   2.1548049  67.9990819  41.4481760   1.3179957  67.5712993  41.2665761
   2.1271694  68.1923262  42.3852551   8.9945505  57.9112749  52.1523006
   9.0433660  58.7874871  51.7700775   9.5368019  57.3690142  51.5794649
  19.4800350  68.4553872  51.4324143  18.6895894  68.4378011  50.8928642
  19.2433705  68.9942166  52.1873179  19.5998225  65.3046338  48.7456871
  19.6496230  65.1396346  49.6872394  19.4912149  64.4373597  48.3554752
   8.4834484  67.9834884  36.0348960   8.6322604  68.6670348  35.3815633
   9.2900927  67.9639974  36.5498416  16.8901988  61.2877266  50.0616178
  17.7911850  61.1483731  49.7700176  16.9649962  61.4531721  51.0014356
  11.2244793  58.6644121  48.9069364  10.3548102  58.9577687  48.6351953
  11.4604273  59.2484566  49.6276628  21.1016422  67.7243280  48.9898893
  20.8101230  68.0873260  49.8262354  20.4888553  67.0110288  48.8112225
  22.3012104  65.2896160  41.5101463  23.1358996  65.7285964  41.6739024
  22.4371233  64.8134813  40.6909709  19.3503610  62.8475894  47.4578951
  19.8257732  63.0403541  46.6497802  18.4269176  62.9035080  47.2122335
   6.2387117  64.0100062  37.0410029   5.9933159  63.1062392  37.2390239
   6.4083031  64.0117212  36.0989507  13.9283827  54.8823738  46.4234785
  14.4465771  55.6184765  46.0981273  13.5738960  55.1887731  47.2581544
   5.5082764  59.7428419  34.5396191   4.8152009  59.8172774  33.8836227
   5.2634516  58.9788763  35.0617708  14.1796421  51.3024020  41.9435681
  14.4598175  50.6347210  42.5696108  14.9647028  51.4953116  41.4310345
  11.9829889  70.4783014  33.5060708  11.4103857  71.0973201  33.0531180
  12.5562683  71.0282376  34.0400630  18.0505279  59.7241654  45.6907257
  19.0022702  59.8239752  45.7119481  17.8808730  58.9319923  46.2005341
  16.0719659  56.8097238  45.8766657  15.4769591  57.0902250  45.1813146
  15.7869355  57.2991139  46.6483399  15.2027149  70.7620164  34.6369290
  16.1357822  70.6965726  34.8402166  15.1150362  71.5976431  34.1783823
  17.8315166  70.0786035  31.5973238  17.7528797  69.7445898  32.4908996
  18.6524833  70.5707803  31.5964710  20.5293357  62.9447774  44.8049556
  20.4969677  62.0063775  44.9909240  21.1393981  63.0231811  44.0715381
  12.3676688  61.8143827  30.8476760  13.3135793  61.6850035  30.9165178
  11.9890933  61.0758489  31.3246188  20.6787846  59.7358818  44.8507839
  20.1626894  58.9517274  44.6637768  21.5627794  59.4077534  45.0154359
  18.3398573  53.4799833  40.8103652  18.1423394  53.1714921  41.6946984
  18.9498278  54.2061472  40.9401582  26.3469907  64.0063781  43.9455593
  27.0773295  63.7449069  44.5063296  25.7376852  63.2692503  43.9857661
  24.4285204  62.1471644  44.5430044  23.7018368  62.0127608  43.9346536
  24.0132491  62.4548472  45.3486762  12.2515381  65.8661573  52.3077417
  13.1718390  66.0440172  52.5017464  12.2164964  64.9217619  52.1557116
  10.5519605  59.7393804  30.7831645   9.6451061  59.4426916  30.8594359
  10.8295586  59.4423622  29.9165932   1.4697546  61.0600167  41.2330692
   1.1500330  60.2065475  40.9405066   0.9230974  61.2748745  41.9888659
   5.2477453  63.7762608  44.9500198   5.4663463  64.7079716  44.9688232
   5.6603227  63.4170582  45.7355002  12.1681671  54.2830693  36.9375887
  11.3582399  53.9377778  37.3131133  12.8566088  53.9738237  37.5263498
  14.0972219  53.3608740  38.5600183  14.6503258  53.7804193  39.2190207
  14.3342305  52.4344488  38.6023139  10.1205318  59.3495814  54.3402947
  10.0202045  60.2990171  54.2715038   9.9026860  59.0214053  53.4679017
   9.3218390  56.5980739  30.9243625  10.1837554  56.9235637  31.1839442
   9.5068734  55.8112235  30.4116690   1.3385806  64.6803078  43.2023813
   0.6449277  64.2657031  42.6893768   2.0858797  64.7223615  42.6057232
  17.4751026  55.4709265  38.0678848  16.8949695  56.1294069  37.6856900
  17.2086959  54.6486610  37.6566265  15.9254593  54.8714323  40.2700168
  16.4254371  54.9830857  39.4614487  16.5690201  54.5675376  40.9100976
   9.9836588  62.7792953  53.1568009   9.5003670  63.5793313  53.3631898
  10.0697527  62.7900897  52.2035453   3.2522548  64.6121332  41.0789828
   3.2293236  64.7109019  40.1271711   3.5623185  65.4586483  41.4006994
   5.9109926  66.6697487  45.1936443   6.8653179  66.6381430  45.1266374
   5.7122449  66.2088111  46.0086669   6.5009308  65.2398603  47.7607240
   7.3202197  65.7342682  47.7842078   6.7746116  64.3230571  47.7324808
  16.2575904  57.6309356  37.1235196  15.3701759  57.9159006  36.9055391
  16.6729893  57.4703119  36.2762473  19.6090440  57.6555877  40.8389535
  20.3850830  58.1452329  41.1114152  18.8838575  58.0813931  41.2961405
  22.0462999  58.3683496  41.8963476  22.6407490  58.1279232  41.1856784
  22.1189583  57.6490626  42.5237012   4.2660155  72.2117107  42.2106641
   4.1314623  71.4517508  41.6444639   3.8492217  72.9358007  41.7435429
  15.4019118  67.3954030  31.2183216  16.1054968  67.6004033  31.8340872
  14.6781766  67.9630792  31.4832299  16.2316928  63.1463891  37.3385486
  16.1752129  63.6032443  36.4993118  16.7845270  62.3854576  37.1608329
  20.0421734  58.9353623  38.1635606  19.7858668  58.5350259  38.9943813
  19.4174602  59.6497417  38.0385745  24.3534072  61.6749697  40.6706897
  23.7933630  61.7442886  41.4438459  23.7477575  61.4990681  39.9506393
   7.4229281  73.1086424  42.4225083   7.3061665  74.0531856  42.3203774
   6.6021727  72.8059985  42.8110882  17.3105815  67.8336559  33.2681676
  18.1451419  67.4017758  33.0859151  17.1490158  67.6618573  34.1958570
  16.9651707  64.3368673  34.6338015  16.9100511  64.1712944  33.6926459
  16.3397763  65.0444706  34.7900205   1.7544222  59.5736737  48.4599437
   2.4003086  59.0635691  48.9486663   1.5461373  60.3105419  49.0342863
  14.2797614  66.6417585  53.9591578  15.1488774  66.8158237  53.5978213
  13.8004366  67.4612001  53.8367307  10.2747833  53.8376782  34.2123334
  10.2626503  54.7818622  34.3691605  11.1671255  53.6546927  33.9182795
   8.4483795  73.7614686  45.6381012   9.3511041  73.7938296  45.9547507
   8.2221165  72.8315137  45.6527347  10.2037397  72.5145672  42.2991090
   9.2533028  72.5147534  42.1855463  10.5069883  71.7678407  41.7827125
  14.0899952  50.4319558  38.4669270  13.3232348  49.8778045  38.6125953
  14.5010657  50.5041427  39.3283422   6.0941713  56.7204354  52.5574452
   6.9573175  56.3641159  52.7677776   5.5207124  56.3818249  53.2449856
  25.9390090  78.3506211  43.3636853  26.5768500  78.2312958  42.6600193
  25.8210933  79.2987054  43.4224805  22.7479796  78.3033639  43.2998377
  22.4098308  78.1874703  42.4118912  23.6169565  77.9024804  43.2799384
  18.6066612  80.1569115  39.2895268  18.0431477  80.0659052  38.5211556
  18.4919007  79.3369020  39.7697761  23.2299579  79.4568490  49.2584583
  23.2188220  79.0621289  48.3865087  23.3920219  78.7234563  49.8518354
  16.1531044  81.6520307  42.1279489  16.9452336  81.3111131  41.7125788
  16.3927694  81.7615282  43.0481642  24.1866171  83.8240083  34.6009733
  23.5354151  84.4094163  34.2143747  24.9810534  84.3546278  34.6604771
  18.1121798  80.9129220  34.9996868  18.8852674  80.3658207  34.8609743
  18.4647197  81.7773469  35.2111329  19.9506841  82.2405602  48.2063767
  19.6596707  83.1451233  48.0910433  20.5863825  82.2822130  48.9207836
  20.8763047  79.6182451  44.7965127  21.4726620  79.3938473  44.0822089
  20.9338019  78.8767196  45.3990574  20.4488076  77.0721886  32.6315318
  20.7013597  76.5503407  31.8698781  19.5112635  76.9088031  32.7342001
  25.4931359  76.0757664  40.4390061  26.2794448  75.6577088  40.0880478
  25.7570063  76.9803757  40.6071709  25.6641436  81.5130515  35.1378718
  25.0287269  81.5865141  35.8499622  25.3338842  82.1024114  34.4597797
  30.8939786  76.0132898  41.3423039  31.6264958  75.4432114  41.5760869
  30.1379142  75.6254498  41.7829545  20.1684365  78.9749992  34.8339692
  20.0520623  78.2994895  35.5020777  20.2786625  78.4882366  34.0171846
  22.5115906  78.4360139  38.5386382  22.1474113  77.9090760  39.2499303
  23.3683021  78.0458608  38.3652867  28.4165206  69.7254472  45.8017648
  28.0848531  70.5949883  45.5778863  27.8210820  69.4090756  46.4811678
  22.1521393  73.4650039  33.5347730  22.3195795  74.3330275  33.9018201
  21.9618562  73.6277320  32.6109019  24.9096726  81.9267018  45.2013561
  24.6097449  82.8292056  45.0929368  24.5647785  81.6599201  46.0534713
  18.3609207  78.3780815  41.2350265  17.4359704  78.2457029  41.4427957
  18.6093620  79.1575034  41.7320207  28.3093870  74.4449558  42.8810998
  27.4010747  74.3764966  42.5869759  28.2581465  74.9221503  43.7092823
  22.1310613  75.9207696  34.5194397  22.0110239  76.3664747  35.3579877
  21.4363202  76.2693014  33.9607935  15.7218018  78.0214088  42.0694054
  15.8510399  78.2748567  42.9833466  15.0415470  78.6141796  41.7498709
  19.8917506  88.6911338  38.1684528  19.8141535  89.6419163  38.2473009
  19.2879149  88.3457211  38.8259455  22.3834735  75.8639203  50.8245895
  21.6068069  76.4233124  50.8148760  23.0225298  76.3495986  51.3460765
  30.1755516  72.6465996  44.6588872  29.5329896  72.9398529  44.0128666
  29.6710444  72.5318917  45.4642069  27.8295680  76.3929169  35.3474731
  28.7413536  76.6256556  35.1722429  27.3205327  76.9766214  34.7849810
  20.6381108  78.6724657  50.3863862  21.3795792  79.2109701  50.1098686
  19.9318093  79.2990946  50.5435414  26.1136447  80.8153797  48.9836024
  26.5219803  80.3736208  48.2390656  25.3913709  80.2406425  49.2370217
  22.4667517  75.7526404  46.3569581  23.3128712  76.1765818  46.5004230
  22.4066155  75.0960028  47.0508144  26.4365262  81.3754988  42.7388313
  25.8074124  81.5400702  42.0364380  26.0490924  81.7896597  43.5099277
  30.3154494  82.3109426  40.0932676  29.6305532  82.6908327  39.5429710
  30.3998343  82.9204752  40.8264624  25.6166963  73.4130772  48.0150754
  25.3727894  74.1672833  47.4785030  25.8926893  73.7916120  48.8498001
  27.5705425  79.9569385  46.6928020  27.7822321  80.6001145  46.0162401
  27.5235174  79.1231701  46.2249950  25.1731654  72.5687205  43.5964592
  24.3116133  72.8668459  43.8881330  25.1994089  72.7857604  42.6645625
  21.9893224  81.1129396  40.0038398  22.4531569  81.3917099  39.2143020
  21.7250022  80.2112841  39.8211488  18.8817305  80.6600878  42.9418161
  19.4518662  81.0888146  42.3035645  19.4725417  80.3783462  43.6402347
  20.9262110  77.2352548  36.8127963  21.6286153  77.6873592  37.2801889
  20.5942738  76.5936367  37.4407856  19.3742471  75.8264305  51.1879172
  18.7441132  76.5080586  51.4214569  19.2678559  75.7147387  50.2432310
  14.6687444  75.4936101  42.1145096  13.8786498  75.7493630  41.6385207
  15.1598691  76.3084439  42.2197137  28.6851253  82.8341340  44.8650377
  29.5068697  82.4321527  44.5833059  28.6813656  82.7309574  45.8166493
  16.6202189  75.8580680  39.0728573  15.8233352  75.9699375  39.5912069
  16.3927781  76.1967332  38.2069464  22.4507857  82.3825384  47.0211088
  22.5152289  82.8445791  47.8569260  21.7418781  81.7522748  47.1493398
  12.9525147  75.7466591  44.5460087  13.2033185  76.6313601  44.8117663
  13.4884695  75.5671193  43.7735179  22.1655874  84.0493491  36.8890068
  22.0301549  84.8945027  37.3174916  22.7065687  84.2512769  36.1256002
  18.6523214  70.1285071  53.5504423  18.2590160  69.5751269  54.2252067
  19.4689354  70.4395649  53.9410941  15.6185272  81.5668929  37.4617993
  16.1309792  82.3612179  37.6123558  16.2707985  80.8695219  37.3951595
  17.4280157  84.6834685  39.5440746  17.6046785  85.6052650  39.3561730
  18.2236990  84.3693105  39.9735126  21.5691175  71.5442950  51.1424680
  22.3100888  72.1450103  51.0629142  21.8009098  70.8020588  50.5842722
  16.7132513  76.7299317  49.4202909  16.5986028  75.8284574  49.7210008
  15.8577031  76.9763014  49.0687726  23.7924351  84.6717058  51.0190410
  23.3488205  83.8853436  50.7011315  24.4541564  84.8596208  50.3534301
  18.5511472  86.2012859  45.5451089  19.1018897  86.0729922  44.7728083
  17.7122948  86.5007748  45.1945981  25.8905589  84.9519857  49.0471811
  25.8724064  85.7728738  48.5552081  26.8125509  84.8273933  49.2721953
  22.3478643  82.4663987  49.8895320  22.8806980  81.7052275  49.6594628
  21.8192724  82.1737639  50.6319474  25.5148338  67.5724053  45.4188961
  25.1712607  68.4625695  45.3428072  25.8827301  67.3825711  44.5558546
  13.5834189  79.8957583  38.2377564  14.4209411  80.3054592  38.0211271
  13.7612456  78.9557025  38.2077758  25.4798621  77.5632664  33.9261397
  24.9645244  78.3337269  34.1649784  25.2075929  76.8897800  34.5494458
  23.0645732  72.4082365  38.9846635  22.2087328  72.0189215  38.8052274
  23.4772684  72.4874326  38.1246421  24.5944878  69.9428708  43.3838195
  24.0909674  69.9058843  42.5706000  24.8875485  70.8521451  43.4434851
  20.8387764  70.0267438  42.3904376  21.7040761  69.8310246  42.0310266
  20.9065273  69.7977790  43.3173733  30.4532895  80.3165019  35.8614570
  29.6762338  79.9776178  35.4169732  31.1324376  80.3217642  35.1869535
  25.2684924  75.4359756  35.7521178  24.9635059  75.7505905  36.6031321
  26.2215366  75.5141176  35.7948511  23.7131356  81.5949979  37.4014132
  23.1852717  80.8602739  37.0887369  23.2118858  82.3724656  37.1554100
  28.6924202  79.7899000  42.5181178  28.0347876  80.4798261  42.6061307
  29.4964601  80.1795432  42.8615164  18.4450083  72.2569646  39.7620743
  19.0193835  72.0344827  39.0293936  19.0321066  72.3258340  40.5149345
  27.5029661  78.1443373  40.5685120  28.0161542  78.7773364  41.0706830
  28.1530884  77.5444568  40.2028480  18.7719670  74.2874107  33.7816629
  17.9356983  74.6248793  34.1025903  18.6324440  74.1523086  32.8443766
  20.7472751  69.1310895  38.4895813  20.0937163  68.8159912  37.8652427
  20.7053225  68.5086635  39.2155636  21.8583956  79.4130190  30.4049105
  20.9511018  79.1819443  30.6040254  22.3554988  78.6167809  30.5923086
  24.7652035  88.1227697  33.3245791  24.0913734  88.4259394  33.9330749
  25.1517857  88.9256777  32.9751248  23.9810491  75.6192828  42.8143460
  23.0633053  75.8407775  42.6565148  24.3970635  75.6939139  41.9555168
  24.7645539  77.0184244  37.9446141  25.5117358  77.5305641  37.6353263
  25.0337129  76.6968297  38.8050534  23.0372189  79.5142785  34.9273095
  22.1283409  79.2301817  35.0245565  23.0667273  79.9341863  34.0676402
  28.2691457  83.1249374  38.6964262  27.8153784  82.2840284  38.7529453
  27.6385423  83.7610772  39.0339043  27.2124376  74.0541360  39.9264930
  26.4747133  73.5418746  40.2575172  27.4651150  73.6141742  39.1148207
  26.7124396  84.9625871  39.6314081  27.0047370  85.5230928  38.9126446
  27.2223017  85.2554432  40.3867240  27.3136004  66.8317612  40.5206699
  27.6194880  65.9714975  40.2332614  28.0388608  67.4235232  40.3205693
  13.6060360  77.2348299  38.9088297  13.4084760  76.6417659  38.1839364
  13.0507024  76.9300509  39.6264236  21.5857083  77.1271405  41.0282890
  21.6405693  76.1745242  40.9525367  20.7748285  77.2830844  41.5124189
  22.7348277  81.0551528  32.2661173  22.2967707  80.3387387  31.8066811
  23.4758718  81.2827643  31.7046265  19.5249443  75.7448465  38.7873269
  18.7117309  76.0442635  39.1938461  20.0208437  75.3504154  39.5047751
  21.6758021  85.7406222  40.7207534  21.6334200  85.9667068  39.7916066
  22.5920720  85.5069596  40.8693335  25.1223655  76.2090289  47.6188163
  25.4773043  76.4361762  48.4782629  25.7695786  76.5408666  46.9965418
  30.8521392  79.3308725  38.3237492  30.7139291  79.5210321  37.3958681
  30.4957611  80.0928108  38.7805543  19.0163518  73.3166820  44.4034504
  19.6562897  73.1755579  43.7057467  18.1841049  73.0301334  44.0273106
  30.8790772  81.3985252  43.3348764  31.3127278  81.3060541  44.1831818
  31.5922352  81.3742753  42.6968780  19.7923822  82.6169251  40.5169497
  20.5864420  82.1219571  40.3152071  19.0815514  82.0887114  40.1537202
  24.6118666  84.9987346  44.8681864  24.6655689  85.5678283  45.6359580
  23.7433448  85.1689231  44.5035901  16.1006585  76.7612333  36.5929249
  15.1704174  76.6996788  36.8099211  16.1964057  76.2388285  35.7965890
  16.0192134  73.2867145  39.1807491  16.2798952  74.2012479  39.0716651
  16.8409307  72.8191588  39.3304104  17.4917060  74.7004903  46.3506315
  18.1640113  74.4922265  45.7018964  16.6646846  74.5026989  45.9111548
  31.7406321  81.4408953  45.8681649  31.9342211  82.3454763  46.1140924
  31.6406939  80.9816372  46.7020234  23.3942632  71.3266843  48.3671976
  22.7470547  72.0256793  48.2736453  24.1643647  71.7602987  48.7348224
  26.8021430  81.5915696  51.4422530  26.6506936  81.3626247  50.5252613
  26.7926109  82.5486297  51.4553875  23.5706766  79.1647608  46.4268796
  24.4998826  79.3158768  46.2537763  23.1497796  79.2531629  45.5717443
  22.3695098  83.1898273  44.1967334  22.2306184  82.8217057  45.0693272
  21.5809694  83.7045912  44.0251291  22.9643250  88.2907369  35.5392870
  23.1395006  87.8195412  36.3538493  22.2776038  88.9173135  35.7674131
  23.9200313  82.5679875  41.5856171  23.5850146  82.5280645  42.4813821
  23.4204259  81.9024591  41.1126582  17.8944557  77.9747506  47.1108753
  17.7564355  77.2427744  47.7120292  18.8049481  77.8856406  46.8292940
  26.8559505  79.9135910  31.8593231  26.2388675  79.1882738  31.7626284
  26.3875993  80.6745270  31.5160305  20.5226858  77.6867465  46.5992432
  21.2326476  77.0460657  46.5579051  20.4796166  77.9380360  47.5218613
  28.5113636  84.6234818  49.5199011  28.4526183  83.9394038  48.8529594
  28.9133155  85.3653808  49.0679637  19.2355792  74.6732683  48.4188072
  18.6993149  74.2223421  49.0709668  18.6472500  74.8078592  47.6758536
  17.5304335  91.4396732  42.3132730  17.7700933  92.0715256  42.9911749
  16.6873532  91.0884772  42.5998090  18.6458051  74.1321334  30.9814535
  17.7687517  74.0110135  30.6176782  19.1215804  73.3407412  30.7293424
  28.5131044  82.5874402  47.7512991  27.6257822  82.2500324  47.8739390
  29.0829595  81.8557433  47.9881756  10.1660191  78.9198494  41.0756042
  10.8531231  78.6060224  40.4877058  10.0108320  79.8239859  40.8023294
  14.9694913  73.8088690  45.5041066  14.8853102  73.2014360  44.7691476
  14.1477619  74.2997709  45.5050563  22.0432197  87.2475854  44.7174234
  21.9702369  88.0530826  45.2293539  21.6009590  87.4467820  43.8922256
  21.8321977  86.4847625  38.2277056  21.0489499  87.0269305  38.3215280
  22.5314722  87.0021604  38.6271297  25.1418627  72.2942254  40.8711261
  25.6387326  71.5412216  40.5512331  24.3705608  72.3306571  40.3054471
  32.9948384  77.9982619  42.5129553  32.9838260  78.8807335  42.1423486
  32.1265764  77.6454170  42.3184090  24.5030881  87.1462689  46.8732393
  25.2158853  87.7810153  46.8008294  24.0120909  87.2426555  46.0572395
  26.2248408  81.0513941  38.4449685  25.2904686  81.1715404  38.2754389
  26.4025076  80.1486408  38.1809694  21.7253596  74.4359637  40.5982946
  21.3551383  73.8830677  41.2863851  22.2212688  73.8317770  40.0457946
  29.6120959  76.8931260  38.9799719  30.0781411  77.7259252  38.9060021
  30.0628459  76.4276242  39.6844977  19.5542794  84.8957132  47.6937964
  20.2552254  85.5293615  47.8467358  19.0837909  85.2371864  46.9333603
  27.6797190  83.2375082  35.9785871  27.9557034  83.1231676  36.8879745
  26.8101689  82.8392567  35.9398044  27.5837622  69.2611847  43.0190620
  26.6700701  69.4916074  43.1872827  28.0130723  69.3450292  43.8704652
  27.3544080  77.4501739  45.5190514  26.7015530  77.6977647  44.8642967
  27.7324460  76.6365878  45.1852991  24.3151254  87.4861433  39.6218684
  24.4973649  86.6683089  40.0846437  25.1384240  87.7029125  39.1843574
  24.6493419  86.4129618  36.8833733  25.1781186  85.9022072  36.2703895
  24.9121639  86.0972148  37.7479266  23.4031653  78.1921550  52.0056551
  22.7272290  78.0915680  52.6758926  24.2259287  78.0360764  52.4692548
  15.1510512  84.4293487  44.6269066  15.7363949  83.6837175  44.7596971
  14.9535351  84.7397444  45.5105730  18.0049167  87.4644734  39.6431509
  17.3359543  87.9490862  39.1595549  17.8662037  87.7113955  40.5574887
   9.7428167  76.9999087  43.3473510   9.7812266  76.4662678  44.1410628
   9.2368460  76.4734293  42.7284487  22.1454436  89.4988478  46.2414167
  22.6972744  89.6620099  47.0063252  22.4860629  90.0892916  45.5694192
  17.1218929  71.8463628  46.8436052  17.1860256  72.7078459  46.4313450
  17.0586049  71.2337629  46.1108410  16.5971202  73.9186760  50.4909086
  17.2243241  73.5363838  51.1046610  15.7399121  73.7000962  50.8564779
  26.9965310  84.3249735  52.0962822  27.5405214  84.9379694  51.6017776
  26.4152155  84.8829314  52.6129835  13.3736745  75.7263189  36.4227441
  13.6690186  74.8173868  36.3694495  12.4724780  75.7050929  36.1008443
  25.2822823  87.4470453  43.2277849  25.1573963  86.6460193  42.7188795
  25.9401914  87.9416647  42.7391819  16.9030992  73.8019186  42.4054990
  16.1817577  74.4155154  42.2662463  17.6924247  74.3376951  42.3271636
  27.3457732  85.2479474  44.8557399  26.3988067  85.1284825  44.7835726
  27.6940505  84.3601972  44.9383661  19.7057305  71.1373612  48.6795641
  20.2291707  71.3835909  49.4421951  19.4869638  71.9693647  48.2598779
  15.1024586  73.4077287  36.5466766  14.7737292  72.5274666  36.3641872
  15.4563957  73.3524956  37.4343155  24.3504165  85.0432190  41.0561752
  24.2029127  84.1148897  41.2369322  25.1757658  85.0652280  40.5718827
  18.2166409  73.6950257  36.9142244  18.5562482  74.2236178  36.1920852
  18.6638530  74.0330663  37.6900810  27.9538287  85.8660748  42.1426624
  28.8784834  85.6603610  42.0051076  27.7853590  85.6177150  43.0515966
  20.9109850  72.0787308  46.3645312  20.5706670  71.2795121  46.7665992
  20.2048856  72.3789018  45.7922145  21.5626322  69.1636620  44.8172635
  22.3852391  68.6897098  44.6951525  21.8064385  69.9427104  45.3171321
  20.2034556  72.1924878  35.1135537  20.9242919  72.5706131  34.6099253
  19.5799861  72.9113755  35.2170515  24.3465679  72.8970027  36.0493869
  24.5629294  73.7794665  35.7482697  23.8659746  72.5056241  35.3199511
  19.0864901  75.8555741  42.6264614  18.9409481  76.1696044  43.5188895
  18.6090104  76.4740641  42.0735512  20.9461284  72.8458289  42.6745503
  20.9322852  71.9499382  42.3377801  21.6633712  72.8528952  43.3083789
  22.7987414  73.2795629  44.7198630  22.5405192  74.2012699  44.7182961
  22.2672455  72.8826063  45.4099095  27.7433603  86.3846416  37.4988716
  27.9170481  85.8192838  36.7462568  28.2362494  87.1847311  37.3168206
  13.5610563  78.3961085  45.5652275  13.0164031  79.1720893  45.6972549
  14.4389913  78.7431890  45.4071396  20.3498179  71.7272669  37.9433073
  20.4714091  70.7989315  38.1423961  20.0600222  71.7411355  37.0311389
  23.2189370  69.4127579  41.0799793  23.2411067  69.4766912  40.1251773
  23.6357429  68.5732088  41.2740299  33.5972994  79.1482839  39.1179016
  34.0404140  78.3990164  38.7198139  32.7199504  79.1392975  38.7352748
  28.7308776  85.7013180  34.5985614  29.4259680  86.3219873  34.8172929
  29.0731926  84.8508532  34.8737992  14.3476585  77.5230981  48.4582432
  13.6058321  77.6713617  49.0447062  14.0269329  77.7839247  47.5949181
  30.6300199  83.1512886  36.1272945  31.1551523  83.4900159  35.4022265
  30.5422551  82.2159901  35.9436080  22.2920247  87.0646960  48.2562822
  22.6007374  86.8196106  49.1285521  23.0895729  87.2693598  47.7681692
  22.3140859  89.2184869  40.4868198  21.8745850  88.7261248  41.1801055
  23.0648976  88.6757837  40.2460273  14.7933198  85.4096410  40.4892826
  15.6191218  85.1100182  40.1091470  14.4427250  84.6404032  40.9382615
  19.7614732  84.7622878  42.5590500  19.1394741  84.0993583  42.2592728
  20.4319598  84.7884010  41.8764148  12.9941803  83.3282736  41.4481760
  12.1573712  82.9004911  41.2665761  12.9665449  83.5215180  42.3852551
  19.8339259  73.2404666  52.1523006  19.8827414  74.1166789  51.7700775
  20.3761773  72.6982059  51.5794649  30.3194105  83.7845790  51.4324143
  29.5289648  83.7669928  50.8928642  30.0827459  84.3234083  52.1873179
  30.4391980  80.6338256  48.7456871  30.4889985  80.4688263  49.6872394
  30.3305903  79.7665515  48.3554752  19.3228238  83.3126802  36.0348960
  19.4716359  83.9962266  35.3815633  20.1294682  83.2931892  36.5498416
  27.7295742  76.6169184  50.0616178  28.6305605  76.4775649  49.7700176
  27.8043717  76.7823639  51.0014356  22.0638547  73.9936039  48.9069364
  21.1941857  74.2869605  48.6351953  22.2998028  74.5776484  49.6276628
  31.9410177  83.0535197  48.9898893  31.6494985  83.4165178  49.8262354
  31.3282308  82.3402206  48.8112225  33.1405859  80.6188077  41.5101463
  33.9752750  81.0577881  41.6739024  33.2764988  80.1426730  40.6909709
  30.1897365  78.1767812  47.4578951  30.6651486  78.3695458  46.6497802
  29.2662930  78.2326998  47.2122335  17.0780871  79.3391979  37.0410029
  16.8326913  78.4354309  37.2390239  17.2476786  79.3409130  36.0989507
  24.7677581  70.2115656  46.4234785  25.2859525  70.9476683  46.0981273
  24.4132714  70.5179649  47.2581544  16.3476519  75.0720337  34.5396191
  15.6545764  75.1464692  33.8836227  16.1028271  74.3080680  35.0617708
  25.0190175  66.6315938  41.9435681  25.2991929  65.9639127  42.5696108
  25.8040782  66.8245034  41.4310345  22.8223644  85.8074932  33.5060708
  22.2497611  86.4265119  33.0531180  23.3956438  86.3574294  34.0400630
  28.8899034  75.0533572  45.6907257  29.8416457  75.1531670  45.7119481
  28.7202484  74.2611841  46.2005341  26.9113413  72.1389155  45.8766657
  26.3163345  72.4194168  45.1813146  26.6263110  72.6283056  46.6483399
  26.0420904  86.0912082  34.6369290  26.9751577  86.0257644  34.8402166
  25.9544117  86.9268349  34.1783823  28.6708920  85.4077953  31.5973238
  28.5922552  85.0737816  32.4908996  29.4918587  85.8999720  31.5964710
  31.3687112  78.2739692  44.8049556  31.3363432  77.3355693  44.9909240
  31.9787735  78.3523729  44.0715381  23.2070442  77.1435745  30.8476760
  24.1529547  77.0141953  30.9165178  22.8284687  76.4050407  31.3246188
  29.1792327  68.8091751  40.8103652  28.9817148  68.5006839  41.6946984
  29.7892033  69.5353390  40.9401582  23.0909135  81.1953491  52.3077417
  24.0112144  81.3732090  52.5017464  23.0558718  80.2509536  52.1557116
  21.3913360  75.0685721  30.7831645  20.4844815  74.7718834  30.8594359
  21.6689341  74.7715539  29.9165932  12.3091300  76.3892085  41.2330692
  11.9894084  75.5357393  40.9405066  11.7624728  76.6040663  41.9888659
  16.0871208  79.1054526  44.9500198  16.3057217  80.0371633  44.9688232
  16.4996981  78.7462500  45.7355002  23.0075425  69.6122611  36.9375887
  22.1976154  69.2669696  37.3131133  23.6959842  69.3030155  37.5263498
  24.9365974  68.6900658  38.5600183  25.4897012  69.1096111  39.2190207
  25.1736060  67.7636406  38.6023139  20.9599073  74.6787731  54.3402947
  20.8595800  75.6282088  54.2715038  20.7420615  74.3505970  53.4679017
  20.1612144  71.9272656  30.9243625  21.0231308  72.2527555  31.1839442
  20.3462488  71.1404152  30.4116690  12.1779560  80.0094996  43.2023813
  11.4843031  79.5948949  42.6893768  12.9252551  80.0515533  42.6057232
  28.3144781  70.8001183  38.0678848  27.7343450  71.4585987  37.6856900
  28.0480713  69.9778527  37.6566265  26.7648347  70.2006241  40.2700168
  27.2648125  70.3122775  39.4614487  27.4083955  69.8967293  40.9100976
  20.8230343  78.1084870  53.1568009  20.3397425  78.9085230  53.3631898
  20.9091282  78.1192815  52.2035453  14.0916303  79.9413250  41.0789828
  14.0686991  80.0400937  40.1271711  14.4016939  80.7878401  41.4006994
  16.7503680  81.9989405  45.1936443  17.7046934  81.9673347  45.1266374
  16.5516204  81.5380029  46.0086669  17.3403063  80.5690521  47.7607240
  18.1595952  81.0634600  47.7842078  17.6139870  79.6522489  47.7324808
  27.0969659  72.9601273  37.1235196  26.2095514  73.2450924  36.9055391
  27.5123648  72.7995037  36.2762473  30.4484195  72.9847794  40.8389535
  31.2244585  73.4744247  41.1114152  29.7232329  73.4105848  41.2961405
  15.1053909  87.5409024  42.2106641  14.9708377  86.7809425  41.6444639
  14.6885971  88.2649924  41.7435429  26.2412872  82.7245948  31.2183216
  26.9448722  82.9295950  31.8340872  25.5175521  83.2922710  31.4832299
  27.0710682  78.4755809  37.3385486  27.0145884  78.9324361  36.4993118
  27.6239025  77.7146494  37.1608329  30.8815488  74.2645541  38.1635606
  30.6252423  73.8642177  38.9943813  30.2568356  74.9789335  38.0385745
  35.1927826  77.0041614  40.6706897  34.6327384  77.0734804  41.4438459
  34.5871330  76.8282599  39.9506393  18.2623035  88.4378341  42.4225083
  18.1455419  89.3823774  42.3203774  17.4415481  88.1351903  42.8110882
  28.1499570  83.1628477  33.2681676  28.9845174  82.7309676  33.0859151
  27.9883913  82.9910491  34.1958570  27.8045462  79.6660590  34.6338015
  27.7494266  79.5004862  33.6926459  27.1791517  80.3736623  34.7900205
  12.5937977  74.9028655  48.4599437  13.2396840  74.3927609  48.9486663
  12.3855128  75.6397336  49.0342863  25.1191369  81.9709502  53.9591578
  25.9882529  82.1450155  53.5978213  24.6398120  82.7903919  53.8367307
  21.1141587  69.1668699  34.2123334  21.1020257  70.1110539  34.3691605
  22.0065009  68.9838845  33.9182795  19.2877549  89.0906603  45.6381012
  20.1904796  89.1230214  45.9547507  19.0614919  88.1607054  45.6527347
  21.0431151  87.8437590  42.2991090  20.0926782  87.8439451  42.1855463
  21.3463637  87.0970324  41.7827125  24.9293707  65.7611476  38.4669270
  24.1626103  65.2069963  38.6125953  25.3404412  65.8333345  39.3283422
  16.9335468  72.0496272  52.5574452  17.7966929  71.6933077  52.7677776
  16.3600878  71.7110167  53.2449856  36.7783845  93.6798128  43.3636853
  37.4162255  93.5604876  42.6600193  36.6604688  94.6278972  43.4224805
  33.5873551  93.6325556  43.2998377  33.2492063  93.5166621  42.4118912
  34.4563319  93.2316721  43.2799384  29.4460367  95.4861033  39.2895268
  28.8825232  95.3950970  38.5211556  29.3312762  94.6660937  39.7697761
  34.0693334  94.7860408  49.2584583  34.0581975  94.3913206  48.3865087
  34.2313973  94.0526481  49.8518354  26.9924799  96.9812224  42.1279489
  27.7846091  96.6403049  41.7125788  27.2321449  97.0907199  43.0481642
  35.0259925  99.1532000  34.6009733  34.3747905  99.7386081  34.2143747
  35.8204288  99.6838195  34.6604771  28.9515553  96.2421138  34.9996868
  29.7246429  95.6950125  34.8609743  29.3040951  97.1065387  35.2111329
  30.7900595  97.5697520  48.2063767  30.4990461  98.4743151  48.0910433
  31.4257579  97.6114047  48.9207836  31.7156802  94.9474368  44.7965127
  32.3120374  94.7230391  44.0822089  31.7731774  94.2059114  45.3990574
  31.2881830  92.4013804  32.6315318  31.5407351  91.8795325  31.8698781
  30.3506389  92.2379949  32.7342001  36.3325113  91.4049582  40.4390061
  37.1188202  90.9869005  40.0880478  36.5963818  92.3095674  40.6071709
  36.5035191  96.8422432  35.1378718  35.8681024  96.9157059  35.8499622
  36.1732597  97.4316031  34.4597797  41.7333540  91.3424815  41.3423039
  42.4658712  90.7724032  41.5760869  40.9772896  90.9546416  41.7829545
  31.0078119  94.3041910  34.8339692  30.8914377  93.6286813  35.5020777
  31.1180379  93.8174284  34.0171846  33.3509660  93.7652057  38.5386382
  32.9867867  93.2382678  39.2499303  34.2076776  93.3750526  38.3652867
  32.9915147  88.7941956  33.5347730  33.1589549  89.6622193  33.9018201
  32.8012316  88.9569238  32.6109019  35.7490480  97.2558935  45.2013561
  35.4491203  98.1583974  45.0929368  35.4041540  96.9891119  46.0534713
  29.2002962  93.7072732  41.2350265  28.2753458  93.5748946  41.4427957
  29.4487375  94.4866951  41.7320207  39.1487624  89.7741476  42.8810998
  38.2404501  89.7056884  42.5869759  39.0975220  90.2513420  43.7092823
  32.9704368  91.2499614  34.5194397  32.8503993  91.6956665  35.3579877
  32.2756956  91.5984932  33.9607935  26.5611773  93.3506006  42.0694054
  26.6904154  93.6040485  42.9833466  25.8809224  93.9433714  41.7498709
  30.7311260 104.0203256  38.1684528  30.6535290 104.9711081  38.2473009
  30.1272904 103.6749128  38.8259455  33.2228490  91.1931121  50.8245895
  32.4461824  91.7525041  50.8148760  33.8619053  91.6787904  51.3460765
  41.0149270  87.9757914  44.6588872  40.3723651  88.2690447  44.0128666
  40.5104199  87.8610834  45.4642069  38.6689434  91.7221087  35.3474731
  39.5807290  91.9548474  35.1722429  38.1599081  92.3058131  34.7849810
  31.4774862  94.0016575  50.3863862  32.2189546  94.5401618  50.1098686
  30.7711848  94.6282863  50.5435414  36.9530202  96.1445715  48.9836024
  37.3613558  95.7028125  48.2390656  36.2307463  95.5698342  49.2370217
  33.3061272  91.0818322  46.3569581  34.1522467  91.5057735  46.5004230
  33.2459909  90.4251946  47.0508144  37.2759016  96.7046906  42.7388313
  36.6467879  96.8692620  42.0364380  36.8884678  97.1188515  43.5099277
  41.1548248  97.6401343  40.0932676  40.4699286  98.0200245  39.5429710
  41.2392098  98.2496670  40.8264624  36.4560717  88.7422690  48.0150754
  36.2121649  89.4964751  47.4785030  36.7320648  89.1208038  48.8498001
  38.4099180  95.2861302  46.6928020  38.6216075  95.9293062  46.0162401
  38.3628928  94.4523619  46.2249950  36.0125409  87.8979123  43.5964592
  35.1509888  88.1960377  43.8881330  36.0387843  88.1149522  42.6645625
  32.8286978  96.4421314  40.0038398  33.2925324  96.7209017  39.2143020
  32.5643776  95.5404758  39.8211488  29.7211059  95.9892795  42.9418161
  30.2912416  96.4180064  42.3035645  30.3119171  95.7075380  43.6402347
  31.7655864  92.5644466  36.8127963  32.4679908  93.0165510  37.2801889
  31.4336493  91.9228285  37.4407856  30.2136226  91.1556223  51.1879172
  29.5834886  91.8372504  51.4214569  30.1072314  91.0439304  50.2432310
  25.5081198  90.8228019  42.1145096  24.7180252  91.0785547  41.6385207
  25.9992446  91.6376357  42.2197137  39.5245008  98.1633258  44.8650377
  40.3462452  97.7613445  44.5833059  39.5207411  98.0601492  45.8166493
  27.4595944  91.1872598  39.0728573  26.6627107  91.2991292  39.5912069
  27.2321536  91.5259250  38.2069464  33.2901611  97.7117301  47.0211088
  33.3546044  98.1737708  47.8569260  32.5812535  97.0814666  47.1493398
  23.7918901  91.0758509  44.5460087  24.0426940  91.9605519  44.8117663
  24.3278450  90.8963111  43.7735179  33.0049629  99.3785409  36.8890068
  32.8695304 100.2236944  37.3174916  33.5459441  99.5804686  36.1256002
  29.4916969  85.4576989  53.5504423  29.0983914  84.9043187  54.2252067
  30.3083109  85.7687567  53.9410941  26.4579026  96.8960847  37.4617993
  26.9703547  97.6904097  37.6123558  27.1101739  96.1987137  37.3951595
  28.2673911 100.0126603  39.5440746  28.4440539 100.9344568  39.3561730
  29.0630745  99.6985022  39.9735126  32.4084930  86.8734868  51.1424680
  33.1494643  87.4742021  51.0629142  32.6402852  86.1312505  50.5842722
  27.5526268  92.0591235  49.4202909  27.4379783  91.1576492  49.7210008
  26.6970785  92.3054932  49.0687726  34.6318105 100.0008975  51.0190410
  34.1881959  99.2145354  50.7011315  35.2935319 100.1888126  50.3534301
  29.3905226 101.5304777  45.5451089  29.9412652 101.4021840  44.7728083
  28.5516702 101.8299666  45.1945981  36.7299343 100.2811775  49.0471811
  36.7117819 101.1020656  48.5552081  37.6519263 100.1565850  49.2721953
  33.1872398  97.7955905  49.8895320  33.7200734  97.0344193  49.6594628
  32.6586479  97.5029556  50.6319474  24.4227943  95.2249501  38.2377564
  25.2603165  95.6346509  38.0211271  24.6006211  94.2848943  38.2077758
  36.3192375  92.8924582  33.9261397  35.8038999  93.6629186  34.1649784
  36.0469684  92.2189718  34.5494458  33.9039486  87.7374282  38.9846635
  33.0481083  87.3481133  38.8052274  34.3166438  87.8166243  38.1246421
  35.4338633  85.2720626  43.3838195  34.9303428  85.2350761  42.5706000
  35.7269240  86.1813368  43.4434851  31.6781519  85.3559355  42.3904376
  32.5434516  85.1602164  42.0310266  31.7459028  85.1269707  43.3173733
  41.2926649  95.6456936  35.8614570  40.5156092  95.3068096  35.4169732
  41.9718130  95.6509559  35.1869535  36.1078678  90.7651674  35.7521178
  35.8028814  91.0797823  36.6031321  37.0609121  90.8433094  35.7948511
  34.5525110  96.9241897  37.4014132  34.0246472  96.1894657  37.0887369
  34.0512613  97.7016573  37.1554100  39.5317956  95.1190918  42.5181178
  38.8741631  95.8090179  42.6061307  40.3358355  95.5087349  42.8615164
  29.2843838  87.5861563  39.7620743  29.8587590  87.3636745  39.0293936
  29.8714820  87.6550258  40.5149345  38.3423415  93.4735290  40.5685120
  38.8555297  94.1065282  41.0706830  38.9924639  92.8736486  40.2028480
  29.6113425  89.6166024  33.7816629  28.7750737  89.9540711  34.1025903
  29.4718195  89.4815004  32.8443766  31.5866506  84.4602812  38.4895813
  30.9330918  84.1451829  37.8652427  31.5446980  83.8378553  39.2155636
  32.6977710  94.7422107  30.4049105  31.7904772  94.5111361  30.6040254
  33.1948742  93.9459727  30.5923086  35.6045789 103.4519615  33.3245791
  34.9307488 103.7551311  33.9330749  35.9911611 104.2548695  32.9751248
  34.8204246  90.9484746  42.8143460  33.9026807  91.1699693  42.6565148
  35.2364390  91.0231056  41.9555168  35.6039294  92.3476161  37.9446141
  36.3511113  92.8597559  37.6353263  35.8730883  92.0260214  38.8050534
  33.8765944  94.8434702  34.9273095  32.9677163  94.5593735  35.0245565
  33.9061028  95.2633781  34.0676402  39.1085211  98.4541292  38.6964262
  38.6547538  97.6132202  38.7529453  38.4779178  99.0902690  39.0339043
  38.0518131  89.3833278  39.9264930  37.3140888  88.8710664  40.2575172
  38.3044904  88.9433659  39.1148207  37.5518150 100.2917788  39.6314081
  37.8441125 100.8522845  38.9126446  38.0616771 100.5846349  40.3867240
  38.1529758  82.1609530  40.5206699  38.4588635  81.3006893  40.2332614
  38.8782363  82.7527150  40.3205693  24.4454114  92.5640216  38.9088297
  24.2478514  91.9709577  38.1839364  23.8900778  92.2592427  39.6264236
  32.4250838  92.4563323  41.0282890  32.4799448  91.5037159  40.9525367
  31.6142040  92.6122762  41.5124189  33.5742032  96.3843446  32.2661173
  33.1361462  95.6679305  31.8066811  34.3152473  96.6119561  31.7046265
  30.3643198  91.0740383  38.7873269  29.5511063  91.3734553  39.1938461
  30.8602192  90.6796071  39.5047751  32.5151776 101.0698139  40.7207534
  32.4727954 101.2958986  39.7916066  33.4314475 100.8361514  40.8693335
  35.9617409  91.5382207  47.6188163  36.3166797  91.7653680  48.4782629
  36.6089541  91.8700584  46.9965418  41.6915146  94.6600643  38.3237492
  41.5533045  94.8502239  37.3958681  41.3351365  95.4220026  38.7805543
  29.8557273  88.6458738  44.4034504  30.4956652  88.5047497  43.7057467
  29.0234803  88.3593251  44.0273106  41.7184526  96.7277170  43.3348764
  42.1521033  96.6352459  44.1831818  42.4316107  96.7034670  42.6968780
  30.6317576  97.9461168  40.5169497  31.4258175  97.4511489  40.3152071
  29.9209269  97.4179032  40.1537202  35.4512421 100.3279264  44.8681864
  35.5049443 100.8970200  45.6359580  34.5827202 100.4981149  44.5035901
  26.9400340  92.0904250  36.5929249  26.0097928  92.0288706  36.8099211
  27.0357812  91.5680203  35.7965890  26.8585889  88.6159063  39.1807491
  27.1192706  89.5304396  39.0716651  27.6803061  88.1483506  39.3304104
  28.3310814  90.0296820  46.3506315  29.0033868  89.8214182  45.7018964
  27.5040601  89.8318906  45.9111548  42.5800076  96.7700871  45.8681649
  42.7735966  97.6746681  46.1140924  42.4800694  96.3108290  46.7020234
  34.2336386  86.6558761  48.3671976  33.5864301  87.3548711  48.2736453
  35.0037402  87.0894905  48.7348224  37.6415184  96.9207613  51.4422530
  37.4900691  96.6918165  50.5252613  37.6319864  97.8778215  51.4553875
  34.4100521  94.4939526  46.4268796  35.3392581  94.6450686  46.2537763
  33.9891551  94.5823547  45.5717443  33.2088852  98.5190190  44.1967334
  33.0699938  98.1508975  45.0693272  32.4203449  99.0337830  44.0251291
  33.8037004 103.6199287  35.5392870  33.9788760 103.1487330  36.3538493
  33.1169792 104.2465053  35.7674131  34.7594068  97.8971793  41.5856171
  34.4243900  97.8572563  42.4813821  34.2598013  97.2316509  41.1126582
  28.7338312  93.3039423  47.1108753  28.5958110  92.5719662  47.7120292
  29.6443235  93.2148323  46.8292940  37.6953259  95.2427828  31.8593231
  37.0782430  94.5174656  31.7626284  37.2269748  96.0037188  31.5160305
  31.3620612  93.0159383  46.5992432  32.0720231  92.3752575  46.5579051
  31.3189920  93.2672277  47.5218613  39.3507391  99.9526736  49.5199011
  39.2919937  99.2685956  48.8529594  39.7526909 100.6945726  49.0679637
  30.0749546  90.0024600  48.4188072  29.5386903  89.5515339  49.0709668
  29.4866255  90.1370509  47.6758536  29.4851805  89.4613252  30.9814535
  28.6081271  89.3402053  30.6176782  29.9609558  88.6699330  30.7293424
  39.3524798  97.9166320  47.7512991  38.4651577  97.5792242  47.8739390
  39.9223349  97.1849351  47.9881756  21.0053945  94.2490412  41.0756042
  21.6924985  93.9352142  40.4877058  20.8502074  95.1531776  40.8023294
  25.8088667  89.1380608  45.5041066  25.7246856  88.5306278  44.7691476
  24.9871374  89.6289626  45.5050563  32.8825952 102.5767772  44.7174234
  32.8096123 103.3822744  45.2293539  32.4403345 102.7759738  43.8922256
  32.6715731 101.8139542  38.2277056  31.8883253 102.3561222  38.3215280
  33.3708476 102.3313522  38.6271297  35.9812381  87.6234172  40.8711261
  36.4781081  86.8704134  40.5512331  35.2099363  87.6598488  40.3054471
  43.8342139  93.3274537  42.5129553  43.8232015  94.2099253  42.1423486
  42.9659518  92.9746088  42.3184090  35.3424635 102.4754606  46.8732393
  36.0552607 103.1102071  46.8008294  34.8514664 102.5718472  46.0572395
  37.0642162  96.3805859  38.4449685  36.1298441  96.5007321  38.2754389
  37.2418830  95.4778326  38.1809694  32.5647350  89.7651555  40.5982946
  32.1945138  89.2122595  41.2863851  33.0606443  89.1609688  40.0457946
  40.4514713  92.2223178  38.9799719  40.9175166  93.0551170  38.9060021
  40.9022214  91.7568160  39.6844977  30.3936549 100.2249050  47.6937964
  31.0946008 100.8585533  47.8467358  29.9231664 100.5663781  46.9333603
  38.5190944  98.5666999  35.9785871  38.7950788  98.4523594  36.8879745
  37.6495443  98.1684484  35.9398044  38.1937835  92.7793657  45.5190514
  37.5409285  93.0269565  44.8642967  38.5718214  91.9657795  45.1852991
  35.1545008 102.8153350  39.6218684  35.3367403 101.9975006  40.0846437
  35.9777994 103.0321043  39.1843574  35.4887174 101.7421535  36.8833733
  36.0174940 101.2313990  36.2703895  35.7515394 101.4264066  37.7479266
  34.2425408  93.5213468  52.0056551  33.5666045  93.4207597  52.6758926
  35.0653042  93.3652682  52.4692548  25.9904267  99.7585405  44.6269066
  26.5757704  99.0129093  44.7596971  25.7929105 100.0689361  45.5105730
  28.8442922 102.7936652  39.6431509  28.1753297 103.2782780  39.1595549
  28.7055792 103.0405873  40.5574887  20.5821921  92.3291005  43.3473510
  20.6206021  91.7954596  44.1410628  20.0762214  91.8026210  42.7284487
  32.9848191 104.8280396  46.2414167  33.5366499 104.9912017  47.0063252
  33.3254384 105.4184833  45.5694192  27.9612684  87.1755545  46.8436052
  28.0254010  88.0370376  46.4313450  27.8979804  86.5629547  46.1108410
  27.4364956  89.2478678  50.4909086  28.0636995  88.8655755  51.1046610
  26.5792875  89.0292880  50.8564779  37.8359065  99.6541653  52.0962822
  38.3798969 100.2671611  51.6017776  37.2545910 100.2121232  52.6129835
  24.2130499  91.0555107  36.4227441  24.5083940  90.1465785  36.3694495
  23.3118535  91.0342847  36.1008443  36.1216578 102.7762371  43.2277849
  35.9967717 101.9752111  42.7188795  36.7795669 103.2708565  42.7391819
  27.7424746  89.1311104  42.4054990  27.0211332  89.7447071  42.2662463
  28.5318002  89.6668868  42.3271636  38.1851486 100.5771391  44.8557399
  37.2381822 100.4576742  44.7835726  38.5334259  99.6893889  44.9383661
  30.5451060  86.4665530  48.6795641  31.0685461  86.7127827  49.4421951
  30.3263393  87.2985565  48.2598779  25.9418341  88.7369205  36.5466766
  25.6131047  87.8566584  36.3641872  26.2957711  88.6816873  37.4343155
  35.1897919 100.3724107  41.0561752  35.0422882  99.4440815  41.2369322
  36.0151413 100.3944198  40.5718827  29.0560164  89.0242175  36.9142244
  29.3956236  89.5528096  36.1920852  29.5032284  89.3622581  37.6900810
  38.7932041 101.1952666  42.1426624  39.7178589 100.9895528  42.0051076
  38.6247345 100.9469067  43.0515966  31.7503605  87.4079225  46.3645312
  31.4100425  86.6087038  46.7665992  31.0442611  87.7080936  45.7922145
  32.4020076  84.4928538  44.8172635  33.2246146  84.0189016  44.6951525
  32.6458140  85.2719021  45.3171321  31.0428311  87.5216796  35.1135537
  31.7636673  87.8998049  34.6099253  30.4193615  88.2405673  35.2170515
  35.1859434  88.2261945  36.0493869  35.4023048  89.1086583  35.7482697
  34.7053501  87.8348158  35.3199511  29.9258655  91.1847658  42.6264614
  29.7803236  91.4987961  43.5188895  29.4483859  91.8032559  42.0735512
  31.7855038  88.1750206  42.6745503  31.7716607  87.2791300  42.3377801
  32.5027466  88.1820870  43.3083789  33.6381169  88.6087547  44.7198630
  33.3798947  89.5304617  44.7182961  33.1066209  88.2117981  45.4099095
  38.5827358 101.7138334  37.4988716  38.7564235 101.1484756  36.7462568
  39.0756249 102.5139229  37.3168206  24.4004317  93.7253003  45.5652275
  23.8557785  94.5012811  45.6972549  25.2783667  94.0723807  45.4071396
  31.1891934  87.0564587  37.9433073  31.3107845  86.1281233  38.1423961
  30.8993976  87.0703273  37.0311389  34.0583124  84.7419497  41.0799793
  34.0804821  84.8058830  40.1251773  34.4751183  83.9024006  41.2740299
  44.4366749  94.4774757  39.1179016  44.8797895  93.7282082  38.7198139
  43.5593259  94.4684893  38.7352748  39.5702530 101.0305098  34.5985614
  40.2653435 101.6511791  34.8172929  39.9125680 100.1800449  34.8737992
  25.1870339  92.8522899  48.4582432  24.4452075  93.0005534  49.0447062
  24.8663083  93.1131165  47.5949181  41.4693953  98.4804804  36.1272945
  41.9945277  98.8192076  35.4022265  41.3816306  97.5451819  35.9436080
  33.1314002 102.3938877  48.2562822  33.4401128 102.1488024  49.1285521
  33.9289484 102.5985516  47.7681692  33.1534614 104.5476787  40.4868198
  32.7139604 104.0553166  41.1801055  33.9042731 104.0049754  40.2460273
  25.6326953 100.7388328  40.4892826  26.4584973 100.4392100  40.1091470
  25.2821005  99.9695950  40.9382615  30.6008486 100.0914796  42.5590500
  29.9788495  99.4285501  42.2592728  31.2713353 100.1175928  41.8764148
  23.8335558  98.6574654  41.4481760  22.9967466  98.2296829  41.2665761
  23.8059203  98.8507097  42.3852551  30.6733014  88.5696584  52.1523006
  30.7221169  89.4458707  51.7700775  31.2155528  88.0273977  51.5794649
  41.1587859  99.1137707  51.4324143  40.3683403  99.0961846  50.8928642
  40.9221214  99.6526001  52.1873179  41.2785734  95.9630174  48.7456871
  41.3283739  95.7980181  49.6872394  41.1699658  95.0957433  48.3554752
  30.1621993  98.6418719  36.0348960  30.3110113  99.3254184  35.3815633
  30.9688436  98.6223809  36.5498416  38.5689497  91.9461102  50.0616178
  39.4699359  91.8067566  49.7700176  38.6437471  92.1115556  51.0014356
  32.9032302  89.3227956  48.9069364  32.0335611  89.6161522  48.6351953
  33.1391782  89.9068401  49.6276628  42.7803931  98.3827115  48.9898893
  42.4888739  98.7457096  49.8262354  42.1676062  97.6694123  48.8112225
  43.9799613  95.9479995  41.5101463  44.8146505  96.3869799  41.6739024
  44.1158742  95.4718648  40.6909709  41.0291119  93.5059730  47.4578951
  41.5045241  93.6987376  46.6497802  40.1056685  93.5618916  47.2122335
  27.9174626  94.6683897  37.0410029  27.6720668  93.7646227  37.2390239
  28.0870540  94.6701047  36.0989507  27.1870273  90.4012254  34.5396191
  26.4939518  90.4756609  33.8836227  26.9422025  89.6372598  35.0617708
  35.8583930  81.9607856  41.9435681  36.1385684  81.2931045  42.5696108
  36.6434537  82.1536951  41.4310345  33.6617398 101.1366850  33.5060708
  33.0891366 101.7557037  33.0531180  34.2350192 101.6866211  34.0400630
  39.7292788  90.3825490  45.6907257  40.6810211  90.4823587  45.7119481
  39.5596239  89.5903758  46.2005341  37.7507168  87.4681073  45.8766657
  37.1557100  87.7486086  45.1813146  37.4656864  87.9574974  46.6483399
  36.8814658 101.4204000  34.6369290  37.8145331 101.3549562  34.8402166
  36.7937871 102.2560267  34.1783823  39.5102675 100.7369870  31.5973238
  39.4316306 100.4029734  32.4908996  40.3312342 101.2291638  31.5964710
  42.2080866  93.6031609  44.8049556  42.1757186  92.6647610  44.9909240
  42.8181490  93.6815646  44.0715381  34.0464197  92.4727662  30.8476760
  34.9923302  92.3433871  30.9165178  33.6678442  91.7342324  31.3246188
  42.3575355  90.3942653  44.8507839  41.8414403  89.6101110  44.6637768
  43.2415303  90.0661370  45.0154359  48.0257416  94.6647616  43.9455593
  48.7560804  94.4032904  44.5063296  47.4164361  93.9276338  43.9857661
  46.1072713  92.8055479  44.5430044  45.3805877  92.6711444  43.9346536
  45.6920000  93.1132308  45.3486762  33.9302889  96.5245409  52.3077417
  34.8505899  96.7024008  52.5017464  33.8952473  95.5801454  52.1557116
  32.2307114  90.3977639  30.7831645  31.3238570  90.1010752  30.8594359
  32.5083095  90.1007457  29.9165932  23.1485054  91.7184002  41.2330692
  22.8287839  90.8649310  40.9405066  22.6018483  91.9332580  41.9888659
  26.9264962  94.4346443  44.9500198  27.1450972  95.3663551  44.9688232
  27.3390736  94.0754418  45.7355002  33.8469180  84.9414529  36.9375887
  33.0369908  84.5961614  37.3131133  34.5353597  84.6322072  37.5263498
  35.7759728  84.0192575  38.5600183  36.3290767  84.4388029  39.2190207
  36.0129814  83.0928323  38.6023139  31.7992827  90.0079649  54.3402947
  31.6989554  90.9574006  54.2715038  31.5814369  89.6797888  53.4679017
  31.0005899  87.2564574  30.9243625  31.8625063  87.5819472  31.1839442
  31.1856243  86.4696070  30.4116690  23.0173314  95.3386914  43.2023813
  22.3236786  94.9240867  42.6893768  23.7646305  95.3807450  42.6057232
  37.6042102  85.5298158  40.2700168  38.1041880  85.6414693  39.4614487
  38.2477710  85.2259211  40.9100976  31.6624097  93.4376788  53.1568009
  31.1791179  94.2377148  53.3631898  31.7485036  93.4484733  52.2035453
  24.9310057  95.2705168  41.0789828  24.9080745  95.3692855  40.1271711
  25.2410694  96.1170318  41.4006994  27.5897435  97.3281323  45.1936443
  28.5440688  97.2965265  45.1266374  27.3909958  96.8671946  46.0086669
  28.1796817  95.8982439  47.7607240  28.9989706  96.3926517  47.7842078
  28.4533625  94.9814407  47.7324808  37.9363413  88.2893191  37.1235196
  37.0489268  88.5742842  36.9055391  38.3517402  88.1286954  36.2762473
  37.0806627  98.0537866  31.2183216  37.7842477  98.2587868  31.8340872
  36.3569275  98.6214627  31.4832299  37.9104437  93.8047727  37.3385486
  37.8539638  94.2616278  36.4993118  38.4632779  93.0438411  37.1608329
  41.7209243  89.5937459  38.1635606  41.4646177  89.1934094  38.9943813
  41.0962111  90.3081253  38.0385745  38.9893324  98.4920395  33.2681676
  39.8238928  98.0601593  33.0859151  38.8277667  98.3202408  34.1958570
  38.6439216  94.9952508  34.6338015  38.5888020  94.8296780  33.6926459
  38.0185272  95.7028541  34.7900205  23.4331731  90.2320572  48.4599437
  24.0790595  89.7219526  48.9486663  23.2248882  90.9689254  49.0342863
  35.9585123  97.3001420  53.9591578  36.8276283  97.4742072  53.5978213
  35.4791875  98.1195837  53.8367307  31.9535342  84.4960617  34.2123334
  31.9414012  85.4402457  34.3691605  32.8458764  84.3130763  33.9182795
  30.1271304 104.4198521  45.6381012  31.0298550 104.4522131  45.9547507
  29.9008674 103.4898972  45.6527347  31.8824906 103.1729508  42.2991090
  30.9320537 103.1731369  42.1855463  32.1857392 102.4262242  41.7827125
  35.7687461  81.0903394  38.4669270  35.0019857  80.5361880  38.6125953
  36.1798166  81.1625263  39.3283422  27.7729222  87.3788190  52.5574452
  28.6360684  87.0224994  52.7677776  27.1994633  87.0402084  53.2449856
  47.6177599 109.0090046  43.3636853  48.2556009 108.8896793  42.6600193
  47.4998442 109.9570890  43.4224805  44.4267305 108.9617474  43.2998377
  44.0885817 108.8458539  42.4118912  45.2957074 108.5608639  43.2799384
  42.1275585 107.7305721  32.6315318  42.3801106 107.2087243  31.8698781
  41.1900144 107.5671867  32.7342001  47.1718868 106.7341500  40.4390061
  47.9581957 106.3160923  40.0880478  47.4357572 107.6387592  40.6071709
  52.5727295 106.6716733  41.3423039  53.3052467 106.1015950  41.5760869
  51.8166651 106.2838333  41.7829545  44.1903415 109.0943974  38.5386382
  43.8261622 108.5674595  39.2499303  45.0470530 108.7042443  38.3652867
  50.0952715 100.3838307  45.8017648  49.7636040 101.2533718  45.5778863
  49.4998329 100.0674591  46.4811678  43.8308902 104.1233874  33.5347730
  43.9983304 104.9914111  33.9018201  43.6406071 104.2861156  32.6109019
  49.9881378 105.1033393  42.8810998  49.0798256 105.0348802  42.5869759
  49.9368974 105.5805338  43.7092823  43.8098122 106.5791532  34.5194397
  43.6897748 107.0248582  35.3579877  43.1150711 106.9276849  33.9607935
  44.0622244 106.5223039  50.8245895  43.2855578 107.0816959  50.8148760
  44.7012807 107.0079822  51.3460765  51.8543025 103.3049832  44.6588872
  51.2117405 103.5982365  44.0128666  51.3497953 103.1902752  45.4642069
  49.5083189 107.0513005  35.3474731  50.4201045 107.2840392  35.1722429
  48.9992836 107.6350049  34.7849810  44.1455026 106.4110239  46.3569581
  44.9916221 106.8349653  46.5004230  44.0853664 105.7543864  47.0508144
  47.2954472 104.0714608  48.0150754  47.0515403 104.8256668  47.4785030
  47.5714402 104.4499955  48.8498001  49.2492934 110.6153220  46.6928020
  49.4609830 111.2584980  46.0162401  49.2022683 109.7815537  46.2249950
  46.8519163 103.2271041  43.5964592  45.9903642 103.5252294  43.8881330
  46.8781598 103.4441440  42.6645625  42.6049619 107.8936384  36.8127963
  43.3073662 108.3457427  37.2801889  42.2730247 107.2520203  37.4407856
  41.0529980 106.4848140  51.1879172  40.4228641 107.1664421  51.4214569
  40.9466068 106.3731222  50.2432310  36.3474953 106.1519936  42.1145096
  35.5574007 106.4077465  41.6385207  36.8386200 106.9668274  42.2197137
  38.2989698 106.5164516  39.0728573  37.5020861 106.6283210  39.5912069
  38.0715290 106.8551168  38.2069464  58.4544755 109.8363924  41.2135349
  57.7008464 109.2671322  41.0579353  58.5892297 109.8026589  42.1605983
  40.3310723 100.7868906  53.5504423  39.9377669 100.2335105  54.2252067
  41.1476863 101.0979485  53.9410941  43.2478684 102.2026785  51.1424680
  43.9888397 102.8033938  51.0629142  43.4796607 101.4604423  50.5842722
  47.1935847  98.2307888  45.4188961  46.8500116  99.1209530  45.3428072
  47.5614810  98.0409546  44.5558546  47.1586130 108.2216499  33.9261397
  46.6432753 108.9921104  34.1649784  46.8863438 107.5481635  34.5494458
  44.7433241 103.0666200  38.9846635  43.8874837 102.6773051  38.8052274
  45.1560192 103.1458161  38.1246421  46.2732387 100.6012543  43.3838195
  45.7697183 100.5642679  42.5706000  46.5662994 101.5105286  43.4434851
  42.5175273 100.6851273  42.3904376  43.3828270 100.4894082  42.0310266
  42.5852782 100.4561625  43.3173733  52.1320404 110.9748854  35.8614570
  51.3549847 110.6360013  35.4169732  52.8111885 110.9801477  35.1869535
  46.9472433 106.0943591  35.7521178  46.6422568 106.4089741  36.6031321
  47.9002875 106.1725011  35.7948511  50.3711711 110.4482835  42.5181178
  49.7135385 111.1382097  42.6061307  51.1752110 110.8379267  42.8615164
  40.1237592 102.9153481  39.7620743  40.6981344 102.6928663  39.0293936
  40.7108575 102.9842176  40.5149345  49.1817170 108.8027208  40.5685120
  49.6949051 109.4357200  41.0706830  49.8318393 108.2028403  40.2028480
  40.4507179 104.9457942  33.7816629  39.6144492 105.2832629  34.1025903
  40.3111949 104.8106922  32.8443766  42.4260260  99.7894730  38.4895813
  41.7724672  99.4743747  37.8652427  42.3840734  99.1670470  39.2155636
  45.6598000 106.2776663  42.8143460  44.7420562 106.4991610  42.6565148
  46.0758144 106.3522974  41.9555168  46.4433048 107.6768079  37.9446141
  47.1904867 108.1889476  37.6353263  46.7124638 107.3552132  38.8050534
  48.8911885 104.7125195  39.9264930  48.1534642 104.2002582  40.2575172
  49.1438659 104.2725577  39.1148207  48.9923513  97.4901447  40.5206699
  49.2982389  96.6298811  40.2332614  49.7176117  98.0819068  40.3205693
  43.2644592 107.7855240  41.0282890  43.3193202 106.8329077  40.9525367
  42.4535794 107.9414680  41.5124189  41.2036952 106.4032300  38.7873269
  40.3904818 106.7026471  39.1938461  41.6995946 106.0087989  39.5047751
  46.8011164 106.8674125  47.6188163  47.1560552 107.0945598  48.4782629
  47.4483295 107.1992501  46.9965418  52.5308901 109.9892561  38.3237492
  52.3926800 110.1794157  37.3958681  52.1745120 110.7511943  38.7805543
  40.6951027 103.9750656  44.4034504  41.3350406 103.8339415  43.7057467
  39.8628558 103.6885169  44.0273106  52.5578281 112.0569088  43.3348764
  52.9914787 111.9644377  44.1831818  53.2709861 112.0326588  42.6968780
  37.6979643 103.9450981  39.1807491  37.9586461 104.8596314  39.0716651
  38.5196816 103.4775423  39.3304104  39.1704569 105.3588738  46.3506315
  39.8427622 105.1506100  45.7018964  38.3434355 105.1610824  45.9111548
  53.4193830 112.0992788  45.8681649  53.6129720 113.0038599  46.1140924
  53.3194448 111.6400207  46.7020234  45.0730141 101.9850679  48.3671976
  44.4258056 102.6840628  48.2736453  45.8431156 102.4186823  48.7348224
  45.2494275 109.8231444  46.4268796  46.1786335 109.9742603  46.2537763
  44.8285305 109.9115465  45.5717443  42.2014367 108.3451300  46.5992432
  42.9113985 107.7044492  46.5579051  42.1583675 108.5964195  47.5218613
  40.9143301 105.3316518  48.4188072  40.3780658 104.8807257  49.0709668
  40.3260009 105.4662427  47.6758536  40.3245560 104.7905170  30.9814535
  39.4475026 104.6693970  30.6176782  40.8003313 103.9991248  30.7293424
  36.6482422 104.4672526  45.5041066  36.5640611 103.8598195  44.7691476
  35.8265128 104.9581544  45.5050563  46.8206136 102.9526089  40.8711261
  47.3174835 102.1996052  40.5512331  46.0493117 102.9890406  40.3054471
  54.6735893 108.6566455  42.5129553  54.6625769 109.5391170  42.1423486
  53.8053273 108.3038006  42.3184090  43.4041105 105.0943472  40.5982946
  43.0338892 104.5414513  41.2863851  43.9000197 104.4901606  40.0457946
  51.2908468 107.5515096  38.9799719  51.7568920 108.3843087  38.9060021
  51.7415968 107.0860077  39.6844977  49.2625131  99.9195683  43.0190620
  48.3488210 100.1499910  43.1872827  49.6918232 100.0034127  43.8704652
  49.0331589 108.1085575  45.5190514  48.3803039 108.3561482  44.8642967
  49.4111969 107.2949713  45.1852991  45.0819162 108.8505386  52.0056551
  44.4059799 108.7499515  52.6758926  45.9046796 108.6944600  52.4692548
  38.8006438 102.5047463  46.8436052  38.8647765 103.3662294  46.4313450
  38.7373558 101.8921465  46.1108410  38.2758711 104.5770596  50.4909086
  38.9030750 104.1947673  51.1046610  37.4186630 104.3584798  50.8564779
  38.5818501 104.4603021  42.4054990  37.8605086 105.0738989  42.2662463
  39.3711756 104.9960786  42.3271636  41.3844814 101.7957448  48.6795641
  41.9079216 102.0419744  49.4421951  41.1657147 102.6277483  48.2598779
  36.7812095 104.0661122  36.5466766  36.4524801 103.1858501  36.3641872
  37.1351466 104.0108791  37.4343155  39.8953918 104.3534092  36.9142244
  40.2349991 104.8820013  36.1920852  40.3426039 104.6914498  37.6900810
  42.5897359 102.7371143  46.3645312  42.2494179 101.9378956  46.7665992
  41.8836365 103.0372854  45.7922145  43.2413831  99.8220455  44.8172635
  44.0639900  99.3480934  44.6951525  43.4851894 100.6010939  45.3171321
  41.8822065 102.8508714  35.1135537  42.6030428 103.2289967  34.6099253
  41.2587370 103.5697591  35.2170515  46.0253188 103.5553863  36.0493869
  46.2416803 104.4378501  35.7482697  45.5447255 103.1640076  35.3199511
  40.7652410 106.5139576  42.6264614  40.6196990 106.8279879  43.5188895
  40.2877613 107.1324476  42.0735512  42.6248793 103.5042124  42.6745503
  42.6110361 102.6083217  42.3377801  43.3421221 103.5112788  43.3083789
  44.4774923 103.9379464  44.7198630  44.2192701 104.8596535  44.7182961
  43.9459964 103.5409899  45.4099095  42.0285688 102.3856504  37.9433073
  42.1501600 101.4573150  38.1423961  41.7387731 102.3995190  37.0311389
  44.8976879 100.0711415  41.0799793  44.9198576 100.1350748  40.1251773
  45.3144938  99.2315923  41.2740299  55.2760503 109.8066674  39.1179016
  55.7191649 109.0573999  38.7198139  54.3987013 109.7976811  38.7352748
  41.5126768 103.8988502  52.1523006  41.5614923 104.7750624  51.7700775
  42.0549282 103.3565895  51.5794649  52.1179489 111.2922091  48.7456871
  52.1677494 111.1272099  49.6872394  52.0093412 110.4249350  48.3554752
  49.4083251 107.2753019  50.0616178  50.3093114 107.1359484  49.7700176
  49.4831226 107.4407474  51.0014356  43.7426056 104.6519874  48.9069364
  42.8729366 104.9453440  48.6351953  43.9785537 105.2360319  49.6276628
  54.8193368 111.2771913  41.5101463  55.6540259 111.7161717  41.6739024
  54.9552497 110.8010566  40.6909709  51.8684874 108.8351647  47.4578951
  52.3438995 109.0279294  46.6497802  50.9450439 108.8910833  47.2122335
  46.4465090 100.8699491  46.4234785  46.9647034 101.6060518  46.0981273
  46.0920223 101.1763484  47.2581544  38.0264028 105.7304172  34.5396191
  37.3333273 105.8048527  33.8836227  37.7815780 104.9664516  35.0617708
  46.6977684  97.2899773  41.9435681  46.9779438  96.6222963  42.5696108
  47.4828291  97.4828869  41.4310345  50.5686543 105.7117407  45.6907257
  51.5203966 105.8115505  45.7119481  50.3989993 104.9195676  46.2005341
  48.5900922 102.7972991  45.8766657  47.9950854 103.0778003  45.1813146
  48.3050619 103.2866892  46.6483399  53.0474621 108.9323527  44.8049556
  53.0150941 107.9939528  44.9909240  53.6575244 109.0107564  44.0715381
  44.8857951 107.8019580  30.8476760  45.8317056 107.6725788  30.9165178
  44.5072196 107.0634242  31.3246188  53.1969109 105.7234571  44.8507839
  52.6808158 104.9393027  44.6637768  54.0809058 105.3953287  45.0154359
  50.8579836  99.4675586  40.8103652  50.6604657  99.1590674  41.6946984
  51.4679542 100.1937225  40.9401582  58.8651170 109.9939534  43.9455593
  59.5954559 109.7324822  44.5063296  58.2558116 109.2568256  43.9857661
  56.9466468 108.1347397  44.5430044  56.2199631 108.0003362  43.9346536
  56.5313754 108.4424225  45.3486762  43.0700869 105.7269557  30.7831645
  42.1632324 105.4302669  30.8594359  43.3476850 105.4299375  29.9165932
  44.6862934 100.2706446  36.9375887  43.8763663  99.9253531  37.3131133
  45.3747351  99.9613990  37.5263498  46.6153483  99.3484493  38.5600183
  47.1684521  99.7679946  39.2190207  46.8523569  98.4220241  38.6023139
  42.6386582 105.3371567  54.3402947  42.5383309 106.2865924  54.2715038
  42.4208124 105.0089806  53.4679017  41.8399653 102.5856492  30.9243625
  42.7018817 102.9111390  31.1839442  42.0249997 101.7987988  30.4116690
  49.9932290 101.4585018  38.0678848  49.4130959 102.1169822  37.6856900
  49.7268222 100.6362363  37.6566265  48.4435856 100.8590076  40.2700168
  48.9435634 100.9706610  39.4614487  49.0871464 100.5551129  40.9100976
  48.7757168 103.6185109  37.1235196  47.8883023 103.9034759  36.9055391
  49.1911157 103.4578872  36.2762473  52.1271704 103.6431630  40.8389535
  52.9032094 104.1328082  41.1114152  51.4019838 104.0689684  41.2961405
  54.5644262 104.3559249  41.8963476  55.1588753 104.1154985  41.1856784
  54.6370846 103.6366379  42.5237012  48.7498191 109.1339645  37.3385486
  48.6933393 109.5908196  36.4993118  49.3026534 108.3730329  37.1608329
  52.5602997 104.9229376  38.1635606  52.3039932 104.5226012  38.9943813
  51.9355865 105.6373170  38.0385745  56.8715335 107.6625450  40.6706897
  56.3114893 107.7318639  41.4438459  56.2658839 107.4866434  39.9506393
  49.4832971 110.3244426  34.6338015  49.4281775 110.1588697  33.6926459
  48.8579026 111.0320459  34.7900205  42.7929096  99.8252535  34.2123334
  42.7807766 100.7694375  34.3691605  43.6852518  99.6422680  33.9182795
  46.6081216  96.4195311  38.4669270  45.8413611  95.8653798  38.6125953
  47.0191921  96.4917180  39.3283422  38.6122977 102.7080107  52.5574452
  39.4754438 102.3516912  52.7677776  38.0388387 102.3694002  53.2449856
  58.0329601 113.5599806  45.4188961  57.6893871 114.4501448  45.3428072
  58.4008564 113.3701464  44.5558546  59.8317267 112.8193365  40.5206699
  60.1376144 111.9590729  40.2332614  60.5569872 113.4110985  40.3205693
  57.5371439 112.6191691  41.9435681  57.8173193 111.9514880  42.5696108
  58.3222046 112.8120787  41.4310345  61.6973590 114.7967504  40.8103652
  61.4998412 114.4882592  41.6946984  62.3073296 115.5229143  40.9401582
  57.4474970 111.7487229  38.4669270  56.6807366 111.1945716  38.6125953
  57.8585675 111.8209098  39.3283422   4.2602582  24.6984498  30.0882159
   4.8980992  24.5791245  29.3845499   4.1423425  25.6465342  30.1470111
   1.0692289  24.6511926  30.0243684   0.7310800  24.5352991  29.1364219
   1.9382057  24.2503091  30.0044690   1.5512072  25.8046778  35.9829890
   1.5400713  25.4099576  35.1110393   1.7132711  25.0712850  36.5763661
   9.2152278  22.3611185  28.0668346   9.9477450  21.7910402  28.3006175
   8.4591634  21.9732785  28.5074851   6.7377698  16.0732759  32.5262954
   6.4061023  16.9428170  32.3024169   6.1423312  15.7569043  33.2056985
   3.2309218  28.2745305  31.9258867   2.9309941  29.1770344  31.8174674
   2.8860278  28.0077488  32.7780020   6.6306362  20.7927845  29.6056305
   5.7223239  20.7243254  29.3115066   6.5793958  21.2699790  30.4338130
   8.4968008  18.9944284  31.3834178   7.8542388  19.2876817  30.7373973
   7.9922937  18.8797204  32.1887375   4.4348939  27.1632085  35.7081330
   4.8432296  26.7214495  34.9635963   3.7126201  26.5884712  35.9615523
   0.7880010  22.1004691  33.0814887   1.6341205  22.5244105  33.2249536
   0.7278647  21.4438316  33.7753450   4.7577754  27.7233275  29.4633619
   4.1286617  27.8878989  28.7609687   4.3703416  28.1374885  30.2344583
   8.6366986  28.6587713  26.8177983   7.9518024  29.0386614  26.2675016
   8.7210835  29.2683040  27.5509931   3.9379455  19.7609060  34.7396061
   3.6940387  20.5151120  34.2030337   4.2139385  20.1394407  35.5743308
   5.8917918  26.3047672  33.4173326   6.1034813  26.9479432  32.7407708
   5.8447666  25.4709989  32.9495257   7.0063746  29.1819627  31.5895684
   7.8281189  28.7799815  31.3078365   7.0026148  29.0787862  32.5411800
  15.0969739  25.5258376  27.9380655  14.3433447  24.9565774  27.7824660
  15.2317280  25.4921040  28.8851290   2.1136843  31.0195345  37.7435717
   1.6700697  30.2331723  37.4256621   2.7754057  31.2074495  37.0779608
   4.2118081  31.2998145  35.7717118   4.1936556  32.1207026  35.2797387
   5.1338001  31.1752220  35.9967259   7.0136694  26.1377287  29.2426485
   6.3560368  26.8276549  29.3306613   7.8177093  26.5273719  29.5860471
   5.8242153  24.4921660  27.2930426   6.3374035  25.1251652  27.7952136
   6.4743377  23.8922855  26.9273786   6.5903949  29.4727661  25.4209569
   6.1366276  28.6318571  25.4774760   5.9597916  30.1089060  25.7584349
   5.0336888  31.3104158  26.3559387   5.3259863  31.8709215  25.6371753
   5.5435509  31.6032719  27.1112546   3.4436147  22.5568577  34.3433470
   3.7985535  22.7840050  35.2027935   4.0908278  22.8886953  33.7210725
   9.1733884  25.6787012  25.0482799   9.0351783  25.8688608  24.1203988
   8.8170103  26.4406395  25.5050850   9.2003264  27.7463539  30.0594070
   9.6339770  27.6538829  30.9077124   9.9134845  27.7221040  29.4214086
   2.9331159  31.3465634  31.5927171   2.9868181  31.9156570  32.3604887
   2.0645940  31.5167519  31.2281208  10.0618813  27.7887240  32.5926956
  10.2554703  28.6933051  32.8386230   9.9619432  27.3294659  33.4265541
   1.7155124  17.6745131  35.0917283   1.0683039  18.3735080  34.9981759
   2.4856140  18.1081275  35.4593531   5.1233922  27.9393983  38.1667836
   4.9719428  27.7104535  37.2497920   5.1138602  28.8964584  38.1799181
   1.8919258  25.5125896  33.1514103   2.8211318  25.6637055  32.9783070
   1.4710288  25.6009916  32.2962749   1.2855742  34.6385657  22.2638177
   1.4607498  34.1673700  23.0783799   0.5988530  35.2651423  22.4919437
   2.2412805  28.9158163  28.3101478   1.9062638  28.8758933  29.2059128
   1.7416751  28.2502879  27.8371888   6.8326129  30.9713105  36.2444318
   6.7738675  30.2872326  35.5774901   7.2345647  31.7132095  35.7924944
   6.8343536  28.9352689  34.4758298   5.9470315  28.5978611  34.5984697
   7.4042087  28.2035721  34.7127063  11.3160877  24.3460907  29.2374859
  11.3050753  25.2285622  28.8668792  10.4478256  23.9932458  29.0429396
   2.8243373  33.4940976  33.5977700   3.5371345  34.1288441  33.5253601
   2.3333402  33.5904842  32.7817701   5.6756572  23.7980027  32.2435821
   5.0228023  24.0455934  31.5888274   6.0536952  22.9844165  31.9098298
   2.6363746  33.8339720  26.3463991   2.8186141  33.0161376  26.8091743
   3.4596732  34.0507412  25.9088881   2.9705912  32.7607905  23.6079040
   3.4993678  32.2500360  22.9949202   3.2334131  32.4450435  24.4724573
   1.7244145  24.5399838  38.7301858   1.0484782  24.4393967  39.4004233
   2.5471779  24.3839051  39.1937855   5.3177803  30.6728023  38.8208128
   5.8617707  31.2857981  38.3263083   4.7364647  31.2307601  39.3375141
   3.6035316  33.7948741  29.9523156   3.4786455  32.9938481  29.4434101
   4.2614407  34.2894934  29.4637126   5.6670224  31.5957761  31.5802706
   4.7200559  31.4763112  31.5081033   6.0152997  30.7080259  31.6628968
   2.6716657  31.3910477  27.7807058   2.5241620  30.4627184  27.9614628
   3.4970151  31.4130568  27.2964134   6.2750779  32.2139036  28.8671931
   7.1997327  32.0081897  28.7296382   6.1066082  31.9655437  29.7761273
   1.1199907  19.6273916  31.4443937   0.8617684  20.5490987  31.4428268
   0.5884947  19.2304351  32.1344401   6.0646095  32.7324703  24.2234023
   6.2382973  32.1671126  23.4707875   6.5574987  33.5325598  24.0413512
  11.9185486  25.4961126  25.8424322  12.3616633  24.7468451  25.4443446
  11.0411997  25.4871262  25.4598054   7.0521268  32.0491468  21.3230921
   7.7472172  32.6698160  21.5418235   7.3944418  31.1986819  21.5983299
   8.9512691  29.4991173  22.8518252   9.4764015  29.8378446  22.1267572
   8.8635043  28.5638188  22.6681386   0.6132740  33.4125247  34.9808128
   0.9219866  33.1674394  35.8530828   1.4108222  33.6171885  34.4926998
   8.6406597  30.1324077  38.1569450   7.8502141  30.1148216  37.6173949
   8.4039952  30.6712370  38.9118486   8.7604472  26.9816543  35.4702178
   8.8102477  26.8166551  36.4117701   8.6518395  26.1143802  35.0800059
   6.0508234  22.9647471  36.7861485   6.9518097  22.8253936  36.4945483
   6.1256209  23.1301926  37.7259662  10.2622669  29.4013485  35.7144200
   9.9707477  29.7643465  36.5507661   9.6494800  28.6880493  35.5357532
  11.4618351  26.9666364  28.2346770  12.2965243  27.4056168  28.3984330
  11.5977480  26.4905018  27.4155016   8.5109857  24.5246099  34.1824258
   8.9863979  24.7173746  33.3743109   7.5875422  24.5805285  33.9367641
   3.0890074  16.5593943  33.1480091   3.6072017  17.2954970  32.8226580
   2.7345206  16.8657936  33.9826851   7.2111526  21.4011859  32.4152563
   8.1628949  21.5009957  32.4364787   7.0414977  20.6090128  32.9250648
   5.2325906  18.4867443  32.6011964   4.6375838  18.7672455  31.9058453
   4.9475602  18.9761344  33.3728705   9.6899604  24.6217979  31.5294863
   9.6575924  23.6833980  31.7154547  10.3000228  24.7002016  30.7960688
   9.8394092  21.4129022  31.5753146   9.3233141  20.6287479  31.3883075
  10.7234041  21.0847739  31.7399665  15.5076154  25.6833986  30.6700900
  16.2379542  25.4219274  31.2308603  14.8983099  24.9462708  30.7102968
  13.5891451  23.8241848  31.2675351  12.8624614  23.6897813  30.6591842
  13.1738738  24.1318677  32.0732069   1.4121627  27.5431778  39.0322724
   2.3324637  27.7210377  39.2262770   1.3771210  26.5987824  38.8802423
  11.2069246  20.0453701  28.6208782  11.8013737  19.8049437  27.9102091
  11.2795829  19.3260831  29.2482319  13.5140319  23.3519902  27.3952204
  12.9539877  23.4213091  28.1683766  12.9083822  23.1760886  26.6751700
   3.4403861  28.3187790  40.6836885   4.3095021  28.4928442  40.3223520
   2.9610613  29.1382206  40.5612614  15.0996337  40.0276415  30.0882159
  15.7374747  39.9083163  29.3845499  14.9817180  40.9757259  30.1470111
  11.9086043  39.9803844  30.0243684  11.5704555  39.8644908  29.1364219
  12.7775811  39.5795009  30.0044690   7.7672859  41.8339320  26.0140575
   7.2037724  41.7429257  25.2456863   7.6525254  41.0139224  26.4943068
  12.3905826  41.1338695  35.9829890  12.3794467  40.7391494  35.1110393
  12.5526466  40.4004768  36.5763661   5.3137291  43.3290512  28.8524795
   6.1058583  42.9881336  28.4371095   5.5533941  43.4385487  29.7726949
  13.3472418  45.5010288  21.3255040  12.6960397  46.0864368  20.9389054
  14.1416780  46.0316483  21.3850077   7.2728045  42.5899425  21.7242174
   8.0458921  42.0428412  21.5855050   7.6253444  43.4543674  21.9356636
   9.1113087  43.9175807  34.9309074   8.8202953  44.8221438  34.8155740
   9.7470072  43.9592335  35.6453143  10.0369294  41.2952656  31.5210433
  10.6332866  41.0708678  30.8067396  10.0944266  40.5537401  32.1235881
   9.6094323  38.7492091  19.3560624   9.8619843  38.2273612  18.5944087
   8.6718882  38.5858236  19.4587308  14.6537605  37.7527869  27.1635367
  15.4400695  37.3347292  26.8125784  14.9176310  38.6573961  27.3317016
  14.8247683  43.1900720  21.8624024  14.1893516  43.2635346  22.5744929
  14.4945089  43.7794318  21.1843103  20.0546033  37.6903103  28.0668346
  20.7871205  37.1202319  28.3006175  19.2985388  37.3024703  28.5074851
   9.3290611  40.6520197  21.5584999   9.2126869  39.9765100  22.2266083
   9.4392871  40.1652571  20.7417152  11.6722152  40.1130344  25.2631688
  11.3080360  39.5860965  25.9744610  12.5289268  39.7228813  25.0898174
  17.5771453  31.4024677  32.5262954  17.2454778  32.2720088  32.3024169
  16.9817066  31.0860961  33.2056985  11.3127639  35.1420244  20.2593037
  11.4802042  36.0100480  20.6263508  11.1224808  35.3047525  19.3354326
  14.0702972  43.6037223  31.9258867  13.7703696  44.5062261  31.8174674
  13.7254032  43.3369406  32.7780020   7.5215454  40.0551019  27.9595572
   6.5965950  39.9227234  28.1673263   7.7699867  40.8345239  28.4565514
  17.4700116  36.1219763  29.6056305  16.5616994  36.0535171  29.3115066
  17.4187712  36.5991708  30.4338130  11.2916860  37.5977901  21.2439704
  11.1716485  38.0434952  22.0825184  10.5969449  37.9463219  20.6853242
   4.8824265  39.6984293  28.7939361   5.0116646  39.9518772  29.7078772
   4.2021716  40.2912001  28.4744016   9.0523752  50.3681543  24.8929835
   8.9747782  51.3189368  24.9718315   8.4485396  50.0227415  25.5504761
  11.5440982  37.5409408  37.5491202  10.7674316  38.1003329  37.5394066
  12.1831545  38.0266191  38.0706072  19.3361763  34.3236201  31.3834178
  18.6936143  34.6168734  30.7373973  18.8316691  34.2089122  32.1887375
  16.9901926  38.0699374  22.0720038  17.9019782  38.3026761  21.8967735
  16.4811573  38.6536419  21.5095116   9.7987354  40.3494862  37.1109169
  10.5402039  40.8879906  36.8343992   9.0924340  40.9761150  37.2680721
  15.2742694  42.4924002  35.7081330  15.6826050  42.0506413  34.9635963
  14.5519955  41.9176630  35.9615523  11.6273764  37.4296609  33.0814887
  12.4734959  37.8536023  33.2249536  11.5672402  36.7730233  33.7753450
  15.5971509  43.0525193  29.4633619  14.9680371  43.2170907  28.7609687
  15.2097171  43.4666802  30.2344583  19.4760741  43.9879631  26.8177983
  18.7911779  44.3678532  26.2675016  19.5604590  44.5974957  27.5509931
  14.7773209  35.0900977  34.7396061  14.5334141  35.8443038  34.2030337
  15.0533140  35.4686325  35.5743308  16.7311672  41.6339590  33.4173326
  16.9428567  42.2771350  32.7407708  16.6841420  40.8001906  32.9495257
  14.3337901  34.2457410  30.3209899  13.4722380  34.5438664  30.6126636
  14.3600336  34.4627809  29.3890931  11.1499471  42.7899601  26.7283704
  11.6137816  43.0687304  25.9388327  10.8856269  41.8883046  26.5456795
   8.0423552  42.3371082  29.6663468   8.6124909  42.7658351  29.0280952
   8.6331663  42.0553667  30.3647653  10.0868357  38.9122753  23.5373269
  10.7892400  39.3643797  24.0047196   9.7548985  38.2706572  24.1653163
   8.5348718  37.5034510  37.9124479   7.9047379  38.1850791  38.1459876
   8.4284806  37.3917592  36.9677617   3.8293691  37.1706306  28.8390403
   3.0392745  37.4263834  28.3630514   4.3204938  37.9854644  28.9442444
  17.8457500  44.5111545  31.5895684  18.6674944  44.1091732  31.3078365
  17.8419903  44.4079779  32.5411800   5.7808436  37.5350885  25.7973880
   4.9839599  37.6469579  26.3157375   5.5534028  37.8737537  24.9314770
  11.6114104  44.0595588  33.7456394  11.6758536  44.5215996  34.5814566
  10.9025027  43.4292953  33.8738704   2.1131394  37.4236796  31.2705394
   2.3639432  38.3083806  31.5362970   2.6490942  37.2441398  30.4980486
  25.9363493  40.8550294  27.9380655  25.1827202  40.2857692  27.7824660
  26.0711034  40.8212958  28.8851290  11.3262121  45.7263696  23.6135375
  11.1907796  46.5715232  24.0420222  11.8671934  45.9282974  22.8501308
   7.8129461  31.8055276  40.2749730   7.4196406  31.2521474  40.9497374
   8.6295601  32.1165854  40.6656247   4.7791519  43.2439134  24.1863300
   5.2916039  44.0382384  24.3368864   5.4314231  42.5465424  24.1196901
   6.5886403  46.3604890  26.2686053   6.7653032  47.2822855  26.0807037
   7.3843237  46.0463309  26.6980433  10.7297422  33.2213155  37.8669986
  11.4707135  33.8220308  37.7874449  10.9615345  32.4790793  37.3088029
   5.8738760  38.4069522  36.1448216   5.7592275  37.5054779  36.4455315
   5.0183278  38.6533219  35.7933033  12.9530598  46.3487262  37.7435717
  12.5094452  45.5623641  37.4256621  13.6147811  46.5366413  37.0779608
   7.7117719  47.8783064  32.2696395   8.2625144  47.7500127  31.4973389
   6.8729195  48.1777953  31.9191288  15.0511836  46.6290062  35.7717118
  15.0330311  47.4498943  35.2797387  15.9731756  46.5044138  35.9967259
  11.5084890  44.1434192  36.6140626  12.0413227  43.3822480  36.3839934
  10.9798971  43.8507844  37.3564781  14.6754585  29.2494258  32.1434268
  14.3318854  30.1395899  32.0673379  15.0433547  29.0595915  31.2803853
   2.7440435  41.5727788  24.9622870   3.5815657  41.9824797  24.7456578
   2.9218703  40.6327230  24.9323064  14.6404867  39.2402869  20.6506703
  14.1251491  40.0107474  20.8895091  14.3682176  38.5668005  21.2739765
  12.2251979  34.0852570  25.7091942  11.3693575  33.6959420  25.5297580
  12.6378930  34.1644530  24.8491727  13.7551125  31.6198913  30.1083501
  13.2515921  31.5829048  29.2951307  14.0481732  32.5291656  30.1680158
   9.9994011  31.7037643  29.1149683  10.8647008  31.5080451  28.7555573
  10.0671520  31.4747994  30.0419040  19.6139142  41.9935224  22.5859877
  18.8368584  41.6546383  22.1415039  20.2930623  41.9987847  21.9114842
  14.4291171  37.1129961  22.4766484  14.1241306  37.4276110  23.3276628
  15.3821613  37.1911381  22.5193817  12.8737602  43.2720184  24.1259438
  12.3458964  42.5372944  23.8132676  12.3725105  44.0494861  23.8799407
  17.8530449  41.4669205  29.2426485  17.1954123  42.1568466  29.3306613
  18.6570848  41.8565637  29.5860471   7.6056330  33.9339851  26.4866050
   8.1800082  33.7115032  25.7539243   8.1927313  34.0028545  27.2394651
  16.6635907  39.8213577  27.2930426  17.1767789  40.4543569  27.7952136
  17.3137131  39.2214773  26.9273786   7.9325917  35.9644312  20.5061935
   7.0963229  36.3018998  20.8271210   7.7930687  35.8293291  19.5689072
   9.9078998  30.8081099  25.2141119   9.2543410  30.4930117  24.5897734
   9.8659472  30.1856840  25.9400942  11.0190203  41.0900395  17.1294411
  10.1117264  40.8589648  17.3285560  11.5161235  40.2938014  17.3168393
  13.9258282  49.7997902  20.0491098  13.2519980  50.1029599  20.6576055
  14.3124104  50.6026982  19.6996555  13.1416738  37.2963033  29.5388767
  12.2239300  37.5177980  29.3810455  13.5576882  37.3709344  28.6800474
  13.9251786  38.6954449  24.6691447  14.6723605  39.2075846  24.3598569
  14.1943375  38.3738501  25.5295841  12.1978436  41.1912989  21.6518402
  11.2889655  40.9072022  21.7490871  12.2273520  41.6112068  20.7921708
  17.4297704  44.8019579  25.4209569  16.9760031  43.9610489  25.4774760
  16.7991670  45.4380977  25.7584349  16.3730623  35.7311565  26.6510237
  15.6353380  35.2188951  26.9820479  16.6257397  35.2911947  25.8393513
  15.8730643  46.6396076  26.3559387  16.1653617  47.2001133  25.6371753
  16.3829263  46.9324637  27.1112546  16.4742250  28.5087817  27.2452006
  16.7801127  27.6485180  26.9577921  17.1994855  29.1005437  27.0451000
   2.7666606  38.9118504  25.6333604   2.5691006  38.3187864  24.9084670
   2.2113270  38.6070714  26.3509543  10.7463330  38.8041610  27.7528197
  10.8011940  37.8515446  27.6770673   9.9354532  38.9601049  28.2369495
  11.8954524  42.7321733  18.9906480  11.4573954  42.0157592  18.5312117
  12.6364965  42.9597848  18.4291571   8.6855690  37.4218670  25.5118576
   7.8723556  37.7212840  25.9183768   9.1814684  37.0274359  26.2293058
  10.8364268  47.4176427  27.4452840  10.7940447  47.6437273  26.5161372
  11.7526967  47.1839801  27.5938642  14.2829902  37.8860494  34.3433470
  14.6379289  38.1131967  35.2027935  14.9302033  38.2178871  33.7210725
  20.0127639  41.0078930  25.0482799  19.8745537  41.1980526  24.1203988
  19.6563858  41.7698313  25.5050850   8.1769765  34.9937025  31.1279811
   8.8169144  34.8525784  30.4302774   7.3447295  34.7071539  30.7518413
  20.0397018  43.0755457  30.0594070  20.4733525  42.9830746  30.9077124
  20.7528599  43.0512958  29.4214086   8.9530069  44.2939456  27.2414803
   9.7470667  43.7989776  27.0397378   8.2421761  43.7657319  26.8782509
  13.7724913  46.6757551  31.5927171  13.8261935  47.2448488  32.3604887
  12.9039695  46.8459436  31.2281208   5.2612832  38.4382537  23.3174556
   4.3310420  38.3766993  23.5344518   5.3570304  37.9158490  22.5211197
   5.1798381  34.9637350  25.9052797   5.4405199  35.8782684  25.7961958
   6.0015554  34.4961793  26.0549410   6.6523307  36.3775107  33.0751622
   7.3246360  36.1692470  32.4264271   5.8253093  36.1797193  32.6356854
  20.9012568  43.1179158  32.5926956  21.0948458  44.0224968  32.8386230
  20.8013186  42.6586577  33.4265541  12.5548879  33.0037048  35.0917283
  11.9076794  33.7026998  34.9981759  13.3249894  33.4373192  35.4593531
  15.9627677  43.2685901  38.1667836  15.8113183  43.0396452  37.2497920
  15.9532356  44.2256502  38.1799181  12.7313013  40.8417813  33.1514103
  13.6605073  40.9928973  32.9783070  12.3104043  40.9301834  32.2962749
  11.5301345  44.8668478  30.9212640  11.3912430  44.4987262  31.7938578
  10.7415941  45.3816117  30.7496598  12.1249497  49.9677574  22.2638177
  12.3001252  49.4965617  23.0783799  11.4382285  50.5943340  22.4919437
  13.0806560  44.2450080  28.3101478  12.7456392  44.2050850  29.2059128
  12.5810506  43.5794796  27.8371888   7.0550804  39.6517710  33.8354059
   6.9170602  38.9197949  34.4365598   7.9655727  39.5626611  33.5538247
  16.0165752  41.5906115  18.5838538  15.3994922  40.8652943  18.4871590
  15.5482240  42.3515475  18.2405612   9.6833105  39.3637670  33.3237739
  10.3932723  38.7230862  33.2824357   9.6402413  39.6150565  34.2463920
  17.6719883  46.3005023  36.2444318  17.6132429  45.6164243  35.5774901
  18.0739402  47.0424013  35.7924944   8.3962038  36.3502888  35.1433378
   7.8599396  35.8993626  35.7954975   7.8078747  36.4848796  34.4003843
   6.6910582  53.1166937  29.0378037   6.9307180  53.7485461  29.7157055
   5.8479778  52.7654977  29.3243396  17.6737290  44.2644607  34.4758298
  16.7864069  43.9270529  34.5984697  18.2435842  43.5327638  34.7127063
   4.1301160  35.4858895  32.2286373   4.0459348  34.8784565  31.4936783
   3.3083866  35.9767914  32.2295869  11.2038444  48.9246059  31.4419541
  11.1308615  49.7301031  31.9538845  10.7615837  49.1238025  30.6167562
  10.9928223  48.1617829  24.9522362  10.2095745  48.7039510  25.0460587
  11.6920969  48.6791809  25.3516604  14.3024874  33.9712459  27.5956568
  14.7993573  33.2182421  27.2757638  13.5311855  34.0076776  27.0299777
  22.1554631  39.6752824  29.2374859  22.1444507  40.5577540  28.8668792
  21.2872010  39.3224375  29.0429396  13.6637127  48.8232893  33.5977700
  14.3765100  49.4580358  33.5253601  13.1727156  48.9196759  32.7817701
  15.3854654  42.7284146  25.1694991  14.4510933  42.8485609  24.9999696
  15.5631323  41.8256613  24.9055001  10.8859842  36.1129842  27.3228252
  10.5157630  35.5600882  28.0109158  11.3818935  35.5087975  26.7703252
  18.7727206  38.5701465  25.7045025  19.2387658  39.4029457  25.6305328
  19.2234706  38.1046447  26.4090284   8.7149041  46.5727337  34.4183270
   9.4158500  47.2063820  34.5712665   8.2444156  46.9142068  33.6578910
  16.8403437  44.9145287  22.7031177  17.1163281  44.8001881  23.6125052
  15.9707935  44.5162772  22.6643351  16.7443868  30.9382052  29.7435927
  15.8306948  31.1686279  29.9118134  17.1736970  31.0220496  30.5949959
  16.5150327  39.1271944  32.2435821  15.8621777  39.3747852  31.5888274
  16.8930707  38.3136083  31.9098298  13.4757501  49.1631638  26.3463991
  13.6579895  48.3453293  26.8091743  14.2990487  49.3799330  25.9088881
  13.8099666  48.0899823  23.6079040  14.3387433  47.5792277  22.9949202
  14.0727886  47.7742353  24.4724573  12.5637900  39.8691755  38.7301858
  11.8878537  39.7685885  39.4004233  13.3865534  39.7130969  39.1937855
   4.3116759  46.1063692  31.3514373   4.8970196  45.3607380  31.4842277
   4.1141597  46.4167649  32.2351037   7.1655414  49.1414939  26.3676815
   6.4965789  49.6261067  25.8840856   7.0268284  49.3884160  27.2820194
  11.3060683  51.1758683  32.9659474  11.8578991  51.3390304  33.7308559
  11.6466876  51.7663121  32.2939499   6.2825176  33.5233833  33.5681359
   6.3466502  34.3848664  33.1558756   6.2192296  32.9107834  32.8353717
   5.7577449  35.5956965  37.2154393   6.3849487  35.2134043  37.8291917
   4.9005367  35.3771167  37.5810085  16.1571557  46.0019940  38.8208128
  16.7011461  46.6149899  38.3263083  15.5758402  46.5599519  39.3375141
   2.5342991  37.4033394  23.1472748   2.8296432  36.4944073  23.0939801
   1.6331027  37.3821134  22.8253750  14.4429070  49.1240658  29.9523156
  14.3180210  48.3230398  29.4434101  15.1008161  49.6186852  29.4637126
   6.0637238  35.4789391  29.1300296   5.3423824  36.0925359  28.9907770
   6.8530494  36.0147156  29.0516942  16.5063978  46.9249678  31.5802706
  15.5594314  46.8055030  31.5081033  16.8546752  46.0372177  31.6628968
   8.8663552  32.8143817  35.4040948   9.3897954  33.0606114  36.1667257
   8.6475885  33.6463852  34.9844085   4.2630833  35.0847492  23.2712073
   3.9343539  34.2044871  23.0887179   4.6170204  35.0295161  24.1588462
  13.5110412  46.7202395  27.7807058  13.3635374  45.7919102  27.9614628
  14.3363905  46.7422485  27.2964134   7.3772656  35.3720462  23.6387550
   7.7168729  35.9006383  22.9166159   7.8244777  35.7100868  24.4146117
  17.1144534  47.5430953  28.8671931  18.0391081  47.3373815  28.7296382
  16.9459837  47.2947355  29.7761273  10.0716097  33.7557512  33.0890619
   9.7312917  32.9565326  33.4911298   9.3655103  34.0559223  32.5167452
  10.7232569  30.8406825  31.5417942  11.5458638  30.3667303  31.4196832
  10.9670632  31.6197309  32.0416628   9.3640803  33.8695083  21.8380843
  10.0849166  34.2476336  21.3344560   8.7406107  34.5883960  21.9415821
  13.5071926  34.5740232  22.7739176  13.7235540  35.4564870  22.4728004
  13.0265993  34.1826446  22.0444818   8.2471147  37.5325946  29.3509920
   8.1015728  37.8466249  30.2434202   7.7696351  38.1510846  28.7980819
  10.1067530  34.5228494  29.3990810  10.0929099  33.6269587  29.0623108
  10.8239958  34.5299157  30.0329096  11.9593661  34.9565834  31.4443937
  11.7011439  35.8782904  31.4428268  11.4278701  34.5596268  32.1344401
  16.9039850  48.0616621  24.2234023  17.0776727  47.4963043  23.4707875
  17.3968741  48.8617516  24.0413512   2.7216810  40.0731290  32.2897581
   2.1770278  40.8491098  32.4217856   3.5996159  40.4202094  32.1316703
   9.5104426  33.4042874  24.6678380   9.6320337  32.4759520  24.8669267
   9.2206469  33.4181560  23.7556695  12.3795617  31.0897784  27.8045100
  12.4017313  31.1537117  26.8497079  12.7963676  30.2502293  27.9985606
  22.7579241  40.8253044  25.8424322  23.2010387  40.0760369  25.4443446
  21.8805751  40.8163180  25.4598054  17.8915022  47.3783385  21.3230921
  18.5865927  47.9990078  21.5418235  18.2338172  46.5278736  21.5983299
   3.5082831  39.2001186  35.1827738   2.7664567  39.3483822  35.7692369
   3.1875576  39.4609452  34.3194488  19.7906445  44.8283091  22.8518252
  20.3157769  45.1670364  22.1267572  19.7028798  43.8930106  22.6681386
  11.4526494  48.7417164  34.9808128  11.7613621  48.4966311  35.8530828
  12.2501976  48.9463803  34.4926998  11.4747106  50.8955074  27.2113505
  11.0352096  50.4031453  27.9046361  12.2255223  50.3528042  26.9705580
   3.9539445  47.0866615  27.2138133   4.7797465  46.7870387  26.8336776
   3.6033497  46.3174237  27.6627921   8.9220978  46.4393083  29.2835806
   8.3000988  45.7763788  28.9838034   9.5925845  46.4654215  28.6009454
   2.1548050  45.0052941  28.1727066   1.3179958  44.5775116  27.9911068
   2.1271696  45.1985385  29.1097858   8.9945506  34.9174871  38.8768312
   9.0433661  35.7936994  38.4946082   9.5368020  34.3752264  38.3039956
  19.4800351  45.4615994  38.1569450  18.6895895  45.4440133  37.6173949
  19.2433706  46.0004288  38.9118486  19.5998227  42.3108461  35.4702178
  19.6496231  42.1458468  36.4117701  19.4912150  41.4435720  35.0800059
   8.4834485  44.9897007  22.7594267   8.6322606  45.6732471  22.1060940
   9.2900929  44.9702097  23.2743723  16.8901989  38.2939389  36.7861485
  17.7911852  38.1545854  36.4945483  16.9649963  38.4593844  37.7259662
  11.2244794  35.6706244  35.6314671  10.3548104  35.9639810  35.3597260
  11.4604275  36.2546689  36.3521935  21.1016423  44.7305402  35.7144200
  20.8101232  45.0935383  36.5507661  20.4888555  44.0172411  35.5357532
  22.3012106  42.2958282  28.2346770  23.1358997  42.7348086  28.3984330
  22.4371234  41.8196935  27.4155016  19.3503612  39.8538017  34.1824258
  19.8257733  40.0465663  33.3743109  18.4269177  39.9097203  33.9367641
   6.2387118  41.0162184  23.7655336   5.9933160  40.1124514  23.9635546
   6.4083033  41.0179335  22.8234814  13.9283828  31.8885861  33.1480091
  14.4465772  32.6246887  32.8226580  13.5738961  32.1949854  33.9826851
   5.5082766  36.7490542  21.2641497   4.8152011  36.8234897  20.6081533
   5.2634518  35.9850885  21.7863014  14.1796422  28.3086143  28.6680988
  14.4598176  27.6409332  29.2941415  14.9647029  28.5015239  28.1555652
  11.9829891  47.4845137  20.2306014  11.4103858  48.1035324  19.7776486
  12.5562684  48.0344499  20.7645936  18.0505281  36.7303777  32.4152563
  19.0022703  36.8301875  32.4364787  17.8808731  35.9382046  32.9250648
  16.0719660  33.8159360  32.6011964  15.4769592  34.0964373  31.9058453
  15.7869357  34.3053261  33.3728705  15.2027151  47.7682287  21.3614597
  16.1357824  47.7027849  21.5647472  15.1150363  48.6038554  20.9029129
  17.8315167  47.0848157  18.3218544  17.7528799  46.7508021  19.2154302
  18.6524834  47.5769925  18.3210017  20.5293358  39.9509897  31.5294863
  20.4969678  39.0125897  31.7154547  21.1393982  40.0293933  30.7960688
  12.3676689  38.8205950  17.5722067  13.3135794  38.6912158  17.6410485
  11.9890934  38.0820612  18.0491495  20.6787847  36.7420940  31.5753146
  20.1626896  35.9579397  31.3883075  21.5627795  36.4139657  31.7399665
  18.3398574  30.4861956  27.5348959  18.1423395  30.1777044  28.4192291
  18.9498279  31.2123595  27.6646889  26.3469908  41.0125904  30.6700900
  27.0773297  40.7511192  31.2308603  25.7376854  40.2754626  30.7102968
  24.4285205  39.1533766  31.2675351  23.7018369  39.0189731  30.6591842
  24.0132492  39.4610595  32.0732069  12.2515382  42.8723696  39.0322724
  13.1718391  43.0502295  39.2262770  12.2164965  41.9279741  38.8802423
   1.4697547  38.0662290  27.9575999   1.1500331  37.2127598  27.6650373
   0.9230975  38.2810868  28.7133966   5.2477454  40.7824731  31.6745505
   5.4663464  41.7141838  31.6933539   5.6603228  40.4232705  32.4600309
  12.1681672  31.2892816  23.6621193  11.3582400  30.9439901  24.0376439
  12.8566089  30.9800360  24.2508805  14.0972220  30.3670863  25.2845490
  14.6503259  30.7866316  25.9435513  14.3342307  29.4406611  25.3268446
  10.1205320  36.3557936  41.0648254  10.0202047  37.3052293  40.9960345
   9.9026862  36.0276175  40.1924324   1.3385807  41.6865201  29.9269120
   0.6449278  41.2719154  29.4139074   2.0858798  41.7285738  29.3302539
  17.4751027  32.4771388  24.7924154  16.8949697  33.1356192  24.4102207
  17.2086960  31.6548732  24.3811572  15.9254594  31.8776445  26.9945475
  16.4254372  31.9892980  26.1859793  16.5690202  31.5737498  27.6346283
   9.9836590  39.7855075  39.8813316   9.5003671  40.5855435  40.0877205
  10.0697529  39.7963020  38.9280760   3.2522549  41.6183455  27.8035135
   3.2293237  41.7171142  26.8517018   3.5623186  42.4648606  28.1252301
   5.9109927  43.6759610  31.9181749   6.8653181  43.6443552  31.8511681
   5.7122451  43.2150234  32.7331975   6.5009309  42.2460726  34.4852547
   7.3202198  42.7404805  34.5087384   6.7746117  41.3292694  34.4570115
  16.2575906  34.6371478  23.8480503  15.3701761  34.9221129  23.6300697
  16.6729895  34.4765242  23.0007779  19.6090442  34.6617999  27.5634842
  20.3850832  35.1514452  27.8359459  18.8838576  35.0876053  28.0206711
  22.0463000  35.3745618  28.6208782  22.6407491  35.1341354  27.9102091
  22.1189584  34.6552749  29.2482319   4.2660156  49.2179229  28.9351947
   4.1314624  48.4579630  28.3689945   3.8492218  49.9420129  28.4680736
  15.4019119  44.4016153  17.9428523  16.1054969  44.6066155  18.5586178
  14.6781768  44.9692915  18.2077606  16.2316929  40.1526014  24.0630793
  16.1752131  40.6094566  23.2238425  16.7845272  39.3916699  23.8853635
  20.0421735  35.9415746  24.8880912  19.7858669  35.5412382  25.7189120
  19.4174603  36.6559540  24.7631051  24.3534073  38.6811819  27.3952204
  23.7933631  38.7505009  28.1683766  23.7477576  38.5052804  26.6751700
   7.4229282  50.1148546  29.1470390   7.3061666  51.0593979  29.0449080
   6.6021728  49.8122108  29.5356189  17.3105816  44.8398682  19.9926983
  18.1451420  44.4079881  19.8104457  17.1490159  44.6680696  20.9203877
  16.9651709  41.3430795  21.3583322  16.9100512  41.1775067  20.4171766
  16.3397764  42.0506828  21.5145512   1.7544224  36.5798860  35.1844744
   2.4003087  36.0697814  35.6731969   1.5461375  37.3167541  35.7588169
  14.2797616  43.6479707  40.6836885  15.1488775  43.8220359  40.3223520
  13.8004367  44.4674124  40.5612614  10.2747834  30.8438904  20.9368640
  10.2626504  31.7880744  21.0936911  11.1671256  30.6609050  20.6428101
   8.4483796  50.7676808  32.3626318   9.3511043  50.8000418  32.6792813
   8.2221166  49.8377259  32.3772654  10.2037398  49.5207795  29.0236397
   9.2533029  49.5209656  28.9100769  10.5069884  48.7740529  28.5072432
  14.0899953  27.4381681  25.1914577  13.3232349  26.8840168  25.3371259
  14.5010658  27.5103550  26.0528729   6.0941715  33.7266477  39.2819758
   6.9573176  33.3703282  39.4923083   5.5207125  33.3880372  39.9695163
  25.9390091  55.3568333  30.0882159  26.5768501  55.2375080  29.3845499
  25.8210934  56.3049177  30.1470111  22.7479798  55.3095761  30.0243684
  22.4098309  55.1936826  29.1364219  23.6169566  54.9086926  30.0044690
  18.6066613  57.1631238  26.0140575  18.0431479  57.0721175  25.2456863
  18.4919008  56.3431142  26.4943068  23.2299581  56.4630613  35.9829890
  23.2188222  56.0683411  35.1110393  23.3920220  55.7296686  36.5763661
  16.1531045  58.6582429  28.8524795  16.9452337  58.3173254  28.4371095
  16.3927696  58.7677404  29.7726949  24.1866172  60.8302205  21.3255040
  23.5354152  61.4156286  20.9389054  24.9810535  61.3608400  21.3850077
  18.1121799  57.9191343  21.7242174  18.8852675  57.3720330  21.5855050
  18.4647198  58.7835592  21.9356636  19.9506842  59.2467725  34.9309074
  19.6596708  60.1513356  34.8155740  20.5863826  59.2884252  35.6453143
  20.8763049  56.6244573  31.5210433  21.4726621  56.4000596  30.8067396
  20.9338020  55.8829319  32.1235881  20.4488077  54.0784009  19.3560624
  20.7013598  53.5565530  18.5944087  19.5112636  53.9150154  19.4587308
  25.4931360  53.0819787  27.1635367  26.2794449  52.6639210  26.8125784
  25.7570064  53.9865879  27.3317016  25.6641437  58.5192637  21.8624024
  25.0287270  58.5927264  22.5744929  25.3338844  59.1086236  21.1843103
  30.8939787  53.0195020  28.0668346  31.6264959  52.4494237  28.3006175
  30.1379143  52.6316621  28.5074851  20.1684366  55.9812115  21.5584999
  20.0520624  55.3057018  22.2266083  20.2786626  55.4944489  20.7417152
  22.5115907  55.4422262  25.2631688  22.1474114  54.9152883  25.9744610
  23.3683023  55.0520731  25.0898174  28.4165207  46.7316594  32.5262954
  28.0848532  47.6012005  32.3024169  27.8210821  46.4152878  33.2056985
  22.1521394  50.4712161  20.2593037  22.3195796  51.3392398  20.6263508
  21.9618563  50.6339443  19.3354326  24.9096727  58.9329140  31.9258867
  24.6097450  59.8354179  31.8174674  24.5647786  58.6661324  32.7780020
  18.3609208  55.3842937  27.9595572  17.4359705  55.2519151  28.1673263
  18.6093622  56.1637156  28.4565514  28.3093871  51.4511680  29.6056305
  27.4010748  51.3827089  29.3115066  28.2581467  51.9283625  30.4338130
  22.1310615  52.9269819  21.2439704  22.0110240  53.3726870  22.0825184
  21.4363203  53.2755137  20.6853242  15.7218019  55.0276211  28.7939361
  15.8510401  55.2810690  29.7078772  15.0415471  55.6203919  28.4744016
  19.8917507  65.6973461  24.8929835  19.8141536  66.6481286  24.9718315
  19.2879150  65.3519333  25.5504761  22.3834737  52.8701326  37.5491202
  21.6068071  53.4295246  37.5394066  23.0225300  53.3558109  38.0706072
  30.1755517  49.6528119  31.3834178  29.5329897  49.9460652  30.7373973
  29.6710446  49.5381039  32.1887375  27.8295681  53.3991292  22.0720038
  28.7413537  53.6318679  21.8967735  27.3205328  53.9828336  21.5095116
  20.6381109  55.6786779  37.1109169  21.3795793  56.2171823  36.8343992
  19.9318094  56.3053068  37.2680721  26.1136448  57.8215920  35.7081330
  26.5219805  57.3798330  34.9635963  25.3913710  57.2468547  35.9615523
  22.4667519  52.7588527  33.0814887  23.3128714  53.1827940  33.2249536
  22.4066156  52.1022151  33.7753450  26.4365263  58.3817111  29.4633619
  25.8074126  58.5462825  28.7609687  26.0490925  58.7958720  30.2344583
  30.3154495  59.3171548  26.8177983  29.6305533  59.6970450  26.2675016
  30.3998344  59.9266875  27.5509931  25.6166964  50.4192895  34.7396061
  25.3727896  51.1734956  34.2030337  25.8926894  50.7978243  35.5743308
  27.5705427  56.9631507  33.4173326  27.7822322  57.6063267  32.7407708
  27.5235175  56.1293824  32.9495257  25.1731656  49.5749328  30.3209899
  24.3116135  49.8730582  30.6126636  25.1994090  49.7919727  29.3890931
  21.9893225  58.1191519  26.7283704  22.4531571  58.3979222  25.9388327
  21.7250023  57.2174963  26.5456795  18.8817306  57.6663000  29.6663468
  19.4518663  58.0950269  29.0280952  19.4725418  57.3845585  30.3647653
  20.9262111  54.2414671  23.5373269  21.6286154  54.6935715  24.0047196
  20.5942740  53.5998490  24.1653163  19.3742473  52.8326428  37.9124479
  18.7441133  53.5142708  38.1459876  19.2678560  52.7209509  36.9677617
  14.6687445  52.4998224  28.8390403  13.8786499  52.7555752  28.3630514
  15.1598692  53.3146561  28.9442444  28.6851255  59.8403463  31.5895684
  29.5068698  59.4383650  31.3078365  28.6813657  59.7371697  32.5411800
  16.6202190  52.8642803  25.7973880  15.8233354  52.9761497  26.3157375
  16.3927783  53.2029455  24.9314770  22.4507858  59.3887506  33.7456394
  22.5152291  59.8507913  34.5814566  21.7418782  58.7584871  33.8738704
  12.9525148  52.7528714  31.2705394  13.2033186  53.6375724  31.5362970
  13.4884696  52.5733316  30.4980486  36.7757248  56.1842211  27.9380655
  36.0220956  55.6149609  27.7824660  36.9104789  56.1504876  28.8851290
  22.1655876  61.0555614  23.6135375  22.0301550  61.9007149  24.0420222
  22.7065688  61.2574891  22.8501308  18.6523215  47.1347193  40.2749730
  18.2590161  46.5813392  40.9497374  19.4689356  47.4457772  40.6656247
  15.6185273  58.5731052  24.1863300  16.1309794  59.3674302  24.3368864
  16.2707986  57.8757342  24.1196901  17.4280158  61.6896808  26.2686053
  17.6046786  62.6114773  26.0807037  18.2236991  61.3755227  26.6980433
  21.5691176  48.5505073  37.8669986  22.3100890  49.1512226  37.7874449
  21.8009099  47.8082710  37.3088029  16.7132514  53.7361440  36.1448216
  16.5986029  52.8346697  36.4455315  15.8577032  53.9825137  35.7933033
  23.7924352  61.6779180  37.7435717  23.3488206  60.8915559  37.4256621
  24.4541566  61.8658331  37.0779608  18.5511473  63.2074982  32.2696395
  19.1018898  63.0792045  31.4973389  17.7122949  63.5069871  31.9191288
  25.8905590  61.9581980  35.7717118  25.8724065  62.7790861  35.2797387
  26.8125510  61.8336055  35.9967259  22.3478644  59.4726110  36.6140626
  22.8806981  58.7114398  36.3839934  21.8192725  59.1799761  37.3564781
  25.5148339  44.5786175  32.1434268  25.1712609  45.4687817  32.0673379
  25.8827302  44.3887833  31.2803853  13.5834190  56.9019706  24.9622870
  14.4209412  57.3116714  24.7456578  13.7612458  55.9619148  24.9323064
  25.4798622  54.5694787  20.6506703  24.9645245  55.3399391  20.8895091
  25.2075930  53.8959923  21.2739765  23.0645733  49.4144487  25.7091942
  22.2087329  49.0251338  25.5297580  23.4772685  49.4936448  24.8491727
  24.5944880  46.9490831  30.1083501  24.0909675  46.9120966  29.2951307
  24.8875487  47.8583573  30.1680158  20.8387766  47.0329560  29.1149683
  21.7040762  46.8372369  28.7555573  20.9065274  46.8039912  30.0419040
  30.4532896  57.3227141  22.5859877  29.6762339  56.9838301  22.1415039
  31.1324377  57.3279764  21.9114842  25.2684925  52.4421879  22.4766484
  24.9635061  52.7568028  23.3276628  26.2215367  52.5203299  22.5193817
  23.7131357  58.6012102  24.1259438  23.1852719  57.8664862  23.8132676
  23.2118860  59.3786778  23.8799407  28.6924203  56.7961122  29.2426485
  28.0347877  57.4860384  29.3306613  29.4964602  57.1857554  29.5860471
  18.4450085  49.2631768  26.4866050  19.0193837  49.0406950  25.7539243
  19.0321067  49.3320463  27.2394651  27.5029662  55.1505495  27.2930426
  28.0161544  55.7835487  27.7952136  28.1530886  54.5506691  26.9273786
  18.7719672  51.2936229  20.5061935  17.9356984  51.6310916  20.8271210
  18.6324441  51.1585209  19.5689072  20.7472752  46.1373017  25.2141119
  20.0937165  45.8222034  24.5897734  20.7053226  45.5148758  25.9400942
  21.8583957  56.4192312  17.1294411  20.9511019  56.1881566  17.3285560
  22.3554989  55.6229932  17.3168393  24.7652036  65.1289819  20.0491098
  24.0913735  65.4321516  20.6576055  25.1517858  65.9318900  19.6996555
  23.9810493  52.6254951  29.5388767  23.0633054  52.8469898  29.3810455
  24.3970636  52.7001261  28.6800474  24.7645540  54.0246366  24.6691447
  25.5117359  54.5367764  24.3598569  25.0337130  53.7030419  25.5295841
  23.0372191  56.5204907  21.6518402  22.1283410  56.2363940  21.7490871
  23.0667274  56.9403986  20.7921708  28.2691458  60.1311497  25.4209569
  27.8153785  59.2902407  25.4774760  27.6385425  60.7672895  25.7584349
  27.2124378  51.0603483  26.6510237  26.4747134  50.5480869  26.9820479
  27.4651151  50.6203864  25.8393513  26.7124397  61.9687993  26.3559387
  27.0047372  62.5293050  25.6371753  27.2223018  62.2616554  27.1112546
  27.3136005  43.8379735  27.2452006  27.6194882  42.9777098  26.9577921
  28.0388610  44.4297355  27.0451000  13.6060361  54.2410421  25.6333604
  13.4084761  53.6479782  24.9084670  13.0507025  53.9362631  26.3509543
  21.5857085  54.1333528  27.7528197  21.6405694  53.1807364  27.6770673
  20.7748287  54.2892967  28.2369495  22.7348278  58.0613651  18.9906480
  22.2967708  57.3449510  18.5312117  23.4758719  58.2889766  18.4291571
  19.5249445  52.7510587  25.5118576  18.7117310  53.0504758  25.9183768
  20.0208439  52.3566276  26.2293058  21.6758022  62.7468344  27.4452840
  21.6334201  62.9729191  26.5161372  22.5920721  62.5131719  27.5938642
  25.1223656  53.2152412  34.3433470  25.4773044  53.4423885  35.2027935
  25.7695787  53.5470789  33.7210725  30.8521393  56.3370848  25.0482799
  30.7139292  56.5272444  24.1203988  30.4957612  57.0990231  25.5050850
  19.0163519  50.3228943  31.1279811  19.6562899  50.1817702  30.4302774
  18.1841050  50.0363456  30.7518413  30.8790773  58.4047375  30.0594070
  31.3127279  58.3122664  30.9077124  31.5922353  58.3804875  29.4214086
  19.7923823  59.6231373  27.2414803  20.5864422  59.1281694  27.0397378
  19.0815516  59.0949237  26.8782509  24.6118668  62.0049469  31.5927171
  24.6655690  62.5740405  32.3604887  23.7433449  62.1751354  31.2281208
  16.1006587  53.7674455  23.3174556  15.1704175  53.7058911  23.5344518
  16.1964059  53.2450408  22.5211197  16.0192136  50.2929268  25.9052797
  16.2798953  51.2074601  25.7961958  16.8409308  49.8253711  26.0549410
  17.4917061  51.7067025  33.0751622  18.1640115  51.4984387  32.4264271
  16.6646848  51.5089111  32.6356854  31.7406322  58.4471075  32.5926956
  31.9342212  59.3516886  32.8386230  31.6406941  57.9878495  33.4265541
  23.3942633  48.3328966  35.0917283  22.7470548  49.0318916  34.9981759
  24.1643648  48.7665110  35.4593531  26.8021431  58.5977818  38.1667836
  26.6506937  58.3688370  37.2497920  26.7926111  59.5548420  38.1799181
  23.5706767  56.1709731  33.1514103  24.4998827  56.3220891  32.9783070
  23.1497797  56.2593752  32.2962749  22.3695099  60.1960395  30.9212640
  22.2306185  59.8279180  31.7938578  21.5809695  60.7108035  30.7496598
  22.9643251  65.2969492  22.2638177  23.1395007  64.8257535  23.0783799
  22.2776039  65.9235258  22.4919437  23.9200314  59.5741998  28.3101478
  23.5850147  59.5342768  29.2059128  23.4204260  58.9086714  27.8371888
  17.8944558  54.9809628  33.8354059  17.7564356  54.2489867  34.4365598
  18.8049482  54.8918528  33.5538247  26.8559506  56.9198032  18.5838538
  26.2388677  56.1944861  18.4871590  26.3875994  57.6807393  18.2405612
  20.5226859  54.6929587  33.3237739  21.2326478  54.0522780  33.2824357
  20.4796167  54.9442482  34.2463920  28.5113638  61.6296941  36.2444318
  28.4526184  60.9456161  35.5774901  28.9133156  62.3715931  35.7924944
  19.2355793  51.6794805  35.1433378  18.6993150  51.2285544  35.7954975
  18.6472501  51.8140714  34.4003843  17.5304336  68.4458855  29.0378037
  17.7700935  69.0777379  29.7157055  16.6873533  68.0946895  29.3243396
  18.6458052  51.1383457  17.7059842  17.7687518  51.0172258  17.3422089
  19.1215805  50.3469535  17.4538731  28.5131045  59.5936525  34.4758298
  27.6257824  59.2562447  34.5984697  29.0829596  58.8619556  34.7127063
  10.1660192  55.9260616  27.8001349  10.8531232  55.6122347  27.2122364
  10.0108321  56.8301981  27.5268601  14.9694914  50.8150813  32.2286373
  14.8853103  50.2076483  31.4936783  14.1477621  51.3059831  32.2295869
  22.0432198  64.2537977  31.4419541  21.9702370  65.0592949  31.9538845
  21.6009591  64.4529943  30.6167562  21.8321978  63.4909747  24.9522362
  21.0489500  64.0331427  25.0460587  22.5314723  64.0083727  25.3516604
  25.1418628  49.3004377  27.5956568  25.6387328  48.5474339  27.2757638
  24.3705610  49.3368693  27.0299777  32.9948385  55.0044742  29.2374859
  32.9838262  55.8869458  28.8668792  32.1265765  54.6516293  29.0429396
  24.5030882  64.1524811  33.5977700  25.2158854  64.7872276  33.5253601
  24.0120911  64.2488677  32.7817701  26.2248409  58.0576064  25.1694991
  25.2904688  58.1777526  24.9999696  26.4025077  57.1548531  24.9055001
  21.7253597  51.4421760  27.3228252  21.3551384  50.8892800  28.0109158
  22.2212689  50.8379893  26.7703252  29.6120960  53.8993383  25.7045025
  30.0781412  54.7321375  25.6305328  30.0628461  53.4338365  26.4090284
  19.5542795  61.9019255  34.4183270  20.2552255  62.5355738  34.5712665
  19.0837910  62.2433986  33.6578910  27.6797191  60.2437204  22.7031177
  27.9557035  60.1293799  23.6125052  26.8101690  59.8454689  22.6643351
  27.5837623  46.2673970  29.7435927  26.6700703  46.4978197  29.9118134
  28.0130724  46.3512414  30.5949959  27.3544081  54.4563862  32.2435821
  26.7015532  54.7039769  31.5888274  27.7324461  53.6428000  31.9098298
  24.3151255  64.4923555  26.3463991  24.4973650  63.6745211  26.8091743
  25.1384241  64.7091247  25.9088881  24.6493421  63.4191740  23.6079040
  25.1781187  62.9084195  22.9949202  24.9121640  63.1034271  24.4724573
  23.4031654  55.1983673  38.7301858  22.7272291  55.0977802  39.4004233
  24.2259288  55.0422887  39.1937855  15.1510513  61.4355610  31.3514373
  15.7363950  60.6899298  31.4842277  14.9535352  61.7459566  32.2351037
  18.0049169  64.4706857  26.3676815  17.3359544  64.9552985  25.8840856
  17.8662038  64.7176077  27.2820194   9.7428168  54.0061210  30.0718816
   9.7812268  53.4724801  30.8655934   9.2368461  53.4796415  29.4529793
  22.1454437  66.5050601  32.9659474  22.6972745  66.6682222  33.7308559
  22.4860631  67.0955038  32.2939499  17.1218930  48.8525750  33.5681359
  17.1860257  49.7140581  33.1558756  17.0586051  48.2399752  32.8353717
  16.5971203  50.9248883  37.2154393  17.2243242  50.5425960  37.8291917
  15.7399122  50.7063085  37.5810085  26.9965312  61.3311858  38.8208128
  27.5405216  61.9441816  38.3263083  26.4152156  61.8891436  39.3375141
  13.3736746  52.7325312  23.1472748  13.6690187  51.8235990  23.0939801
  12.4724782  52.7113051  22.8253750  25.2822825  64.4532576  29.9523156
  25.1573964  63.6522316  29.4434101  25.9401916  64.9478769  29.4637126
  16.9030993  50.8081309  29.1300296  16.1817579  51.4217276  28.9907770
  17.6924249  51.3439073  29.0516942  27.3457733  62.2541596  31.5802706
  26.3988068  62.1346947  31.5081033  27.6940506  61.3664094  31.6628968
  19.7057306  48.1435735  35.4040948  20.2291708  48.3898032  36.1667257
  19.4869640  48.9755770  34.9844085  15.1024587  50.4139410  23.2712073
  14.7737294  49.5336789  23.0887179  15.4563958  50.3587078  24.1588462
  24.3504166  62.0494312  27.7807058  24.2029129  61.1211020  27.9614628
  25.1757660  62.0714403  27.2964134  18.2166411  50.7012379  23.6387550
  18.5562483  51.2298301  22.9166159  18.6638531  51.0392786  24.4146117
  27.9538288  62.8722871  28.8671931  28.8784836  62.6665732  28.7296382
  27.7853591  62.6239272  29.7761273  20.9109851  49.0849430  33.0890619
  20.5706672  48.2857243  33.4911298  20.2048858  49.3851141  32.5167452
  21.5626323  46.1698743  31.5417942  22.3852392  45.6959221  31.4196832
  21.8064387  46.9489226  32.0416628  20.2034558  49.1987001  21.8380843
  20.9242920  49.5768254  21.3344560  19.5799862  49.9175878  21.9415821
  24.3465681  49.9032150  22.7739176  24.5629295  50.7856788  22.4728004
  23.8659748  49.5118363  22.0444818  19.0864902  52.8617863  29.3509920
  18.9409483  53.1758166  30.2434202  18.6090106  53.4802764  28.7980819
  20.9461285  49.8520411  29.3990810  20.9322854  48.9561505  29.0623108
  21.6633713  49.8591075  30.0329096  22.7987416  50.2857751  31.4443937
  22.5405193  51.2074822  31.4428268  22.2672456  49.8888186  32.1344401
  27.7433604  63.3908539  24.2234023  27.9170482  62.8254961  23.4707875
  28.2362496  64.1909433  24.0413512  13.5610564  55.4023208  32.2897581
  13.0164032  56.1783016  32.4217856  14.4389914  55.7494012  32.1316703
  20.3498181  48.7334791  24.6678380  20.4714092  47.8051438  24.8669267
  20.0600223  48.7473477  23.7556695  23.2189371  46.4189702  27.8045100
  23.2411068  46.4829035  26.8497079  23.6357430  45.5794211  27.9985606
  33.5972995  56.1544961  25.8424322  34.0404141  55.4052287  25.4443446
  32.7199506  56.1455098  25.4598054  28.7308777  62.7075303  21.3230921
  29.4259681  63.3281996  21.5418235  29.0731927  61.8570654  21.5983299
  14.3476586  54.5293104  35.1827738  13.6058322  54.6775739  35.7692369
  14.0269330  54.7901370  34.3194488  30.6300200  60.1575008  22.8518252
  31.1551524  60.4962281  22.1267572  30.5422552  59.2222024  22.6681386
  22.2920249  64.0709082  34.9808128  22.6007375  63.8258229  35.8530828
  23.0895731  64.2755721  34.4926998  22.3140861  66.2246992  27.2113505
  21.8745851  65.7323370  27.9046361  23.0648978  65.6819959  26.9705580
  14.7933200  62.4158533  27.2138133  15.6191220  62.1162304  26.8336776
  14.4427252  61.6466155  27.6627921  19.7614733  61.7685001  29.2835806
  19.1394742  61.1055706  28.9838034  20.4319600  61.7946133  28.6009454
  12.9941805  60.3344859  28.1727066  12.1573713  59.9067033  27.9911068
  12.9665450  60.5277302  29.1097858  19.8339260  50.2466789  38.8768312
  19.8827416  51.1228912  38.4946082  20.3761774  49.7044182  38.3039956
  30.3194106  60.7907912  38.1569450  29.5289650  60.7732051  37.6173949
  30.0827461  61.3296206  38.9118486  30.4391981  57.6400378  35.4702178
  30.4889986  57.4750386  36.4117701  30.3305904  56.7727638  35.0800059
  19.3228240  60.3188924  22.7594267  19.4716360  61.0024389  22.1060940
  20.1294683  60.2994014  23.2743723  27.7295743  53.6231307  36.7861485
  28.6305606  53.4837771  36.4945483  27.8043718  53.7885761  37.7259662
  22.0638549  50.9998161  35.6314671  21.1941858  51.2931727  35.3597260
  22.2998029  51.5838606  36.3521935  31.9410178  60.0597320  35.7144200
  31.6494986  60.4227301  36.5507661  31.3282309  59.3464328  35.5357532
  33.1405860  57.6250200  28.2346770  33.9752752  58.0640004  28.3984330
  33.2764989  57.1488853  27.4155016  30.1897366  55.1829935  34.1824258
  30.6651488  55.3757581  33.3743109  29.2662931  55.2389120  33.9367641
  17.0780873  56.3454102  23.7655336  16.8326915  55.4416432  23.9635546
  17.2476787  56.3471252  22.8234814  24.7677583  47.2177778  33.1480091
  25.2859526  47.9538805  32.8226580  24.4132715  47.5241771  33.9826851
  16.3476520  52.0782459  21.2641497  15.6545765  52.1526814  20.6081533
  16.1028272  51.3142803  21.7863014  25.0190177  43.6378061  28.6680988
  25.2991930  42.9701250  29.2941415  25.8040784  43.8307156  28.1555652
  22.8223645  62.8137055  20.2306014  22.2497612  63.4327242  19.7776486
  23.3956439  63.3636416  20.7645936  28.8899035  52.0595695  32.4152563
  29.8416458  52.1593792  32.4364787  28.7202485  51.2673963  32.9250648
  26.9113415  49.1451278  32.6011964  26.3163347  49.4256291  31.9058453
  26.6263111  49.6345179  33.3728705  26.0420905  63.0974205  21.3614597
  26.9751578  63.0319766  21.5647472  25.9544118  63.9330472  20.9029129
  28.6708922  62.4140075  18.3218544  28.5922553  62.0799939  19.2154302
  29.4918588  62.9061843  18.3210017  31.3687113  55.2801814  31.5294863
  31.3363433  54.3417815  31.7154547  31.9787737  55.3585851  30.7960688
  23.2070444  54.1497867  17.5722067  24.1529548  54.0204075  17.6410485
  22.8284689  53.4112529  18.0491495  31.5181601  52.0712858  31.5753146
  31.0020650  51.2871314  31.3883075  32.4021550  51.7431574  31.7399665
  29.1792328  45.8153873  27.5348959  28.9817149  45.5068962  28.4192291
  29.7892034  46.5415512  27.6646889  37.1863663  56.3417821  30.6700900
  37.9167051  56.0803109  31.2308603  36.5770608  55.6046543  30.7102968
  35.2678960  54.4825684  31.2675351  34.5412123  54.3481649  30.6591842
  34.8526247  54.7902512  32.0732069  23.0909136  58.2015614  39.0322724
  24.0112146  58.3794213  39.2262770  23.0558719  57.2571659  38.8802423
  21.3913361  52.0747844  17.5076952  20.4844816  51.7780956  17.5839666
  21.6689342  51.7777662  16.6411238  12.3091301  53.3954207  27.9575999
  11.9894086  52.5419515  27.6650373  11.7624729  53.6102785  28.7133966
  16.0871209  56.1116648  31.6745505  16.3057219  57.0433756  31.6933539
  16.4996983  55.7524623  32.4600309  23.0075427  46.6184733  23.6621193
  22.1976155  46.2731818  24.0376439  23.6959844  46.3092277  24.2508805
  24.9365975  45.6962780  25.2845490  25.4897013  46.1158234  25.9435513
  25.1736061  44.7698528  25.3268446  20.9599074  51.6849854  41.0648254
  20.8595801  52.6344211  40.9960345  20.7420616  51.3568093  40.1924324
  20.1612146  48.9334779  17.6488931  21.0231309  49.2589677  17.9084749
  20.3462490  48.1466275  17.1361997  12.1779561  57.0157119  29.9269120
  11.4843033  56.6011071  29.4139074  12.9252552  57.0577655  29.3302539
  28.3144782  47.8063305  24.7924154  27.7343451  48.4648109  24.4102207
  28.0480715  46.9840650  24.3811572  26.7648348  47.2068363  26.9945475
  27.2648127  47.3184898  26.1859793  27.4083956  46.9029416  27.6346283
  20.8230344  55.1146993  39.8813316  20.3397426  55.9147353  40.0877205
  20.9091283  55.1254938  38.9280760  14.0916304  56.9475372  27.8035135
  14.0686992  57.0463060  26.8517018  14.4016940  57.7940523  28.1252301
  16.7503682  59.0051527  31.9181749  17.7046935  58.9735470  31.8511681
  16.5516205  58.5442151  32.7331975  17.3403064  57.5752644  34.4852547
  18.1595953  58.0696722  34.5087384  17.6139872  56.6584612  34.4570115
  27.0969660  49.9663396  23.8480503  26.2095515  50.2513046  23.6300697
  27.5123649  49.8057159  23.0007779  30.4484196  49.9909917  27.5634842
  31.2244586  50.4806369  27.8359459  29.7232330  50.4167971  28.0206711
  32.8856755  50.7037536  28.6208782  33.4801246  50.4633272  27.9102091
  32.9583338  49.9844667  29.2482319  15.1053910  64.5471147  28.9351947
  14.9708378  63.7871548  28.3689945  14.6885973  65.2712047  28.4680736
  26.2412873  59.7308070  17.9428523  26.9448724  59.9358073  18.5586178
  25.5175522  60.2984832  18.2077606  27.0710684  55.4817932  24.0630793
  27.0145885  55.9386483  23.2238425  27.6239026  54.7208616  23.8853635
  30.8815490  51.2707664  24.8880912  30.6252424  50.8704299  25.7189120
  30.2568358  51.9851458  24.7631051  35.1927828  54.0103737  27.3952204
  34.6327385  54.0796926  28.1683766  34.5871331  53.8344722  26.6751700
  18.2623036  65.4440464  29.1470390  18.1455420  66.3885896  29.0449080
  17.4415483  65.1414026  29.5356189  28.1499571  60.1690600  19.9926983
  28.9845175  59.7371798  19.8104457  27.9883914  59.9972613  20.9203877
  27.8045463  56.6722713  21.3583322  27.7494267  56.5066984  20.4171766
  27.1791518  57.3798746  21.5145512  12.5937978  51.9090777  35.1844744
  13.2396842  51.3989731  35.6731969  12.3855129  52.6459459  35.7588169
  25.1191370  58.9771625  40.6836885  25.9882530  59.1512277  40.3223520
  24.6398122  59.7966042  40.5612614  21.1141589  46.1730822  20.9368640
  21.1020258  47.1172662  21.0936911  22.0065010  45.9900967  20.6428101
  19.2877550  66.0968726  32.3626318  20.1904797  66.1292336  32.6792813
  19.0614921  65.1669177  32.3772654  21.0431152  64.8499712  29.0236397
  20.0926783  64.8501574  28.9100769  21.3463639  64.1032447  28.5072432
  24.9293708  42.7673599  25.1914577  24.1626104  42.2132085  25.3371259
  25.3404413  42.8395467  26.0528729  16.9335469  49.0558394  39.2819758
  17.7966931  48.6995199  39.4923083  16.3600880  48.7172289  39.9695163
  36.7783846  70.6860251  30.0882159  37.4162256  70.5666998  29.3845499
  36.6604689  71.6341095  30.1470111  33.5873552  70.6387679  30.0243684
  33.2492064  70.5228744  29.1364219  34.4563320  70.2378844  30.0044690
  29.4460368  72.4923155  26.0140575  28.8825233  72.4013092  25.2456863
  29.3312763  71.6723060  26.4943068  34.0693335  71.7922531  35.9829890
  34.0581976  71.3975329  35.1110393  34.2313975  71.0588603  36.5763661
  26.9924800  73.9874347  28.8524795  27.7846092  73.6465172  28.4371095
  27.2321450  74.0969322  29.7726949  35.0259927  76.1594123  21.3255040
  34.3747906  76.7448203  20.9389054  35.8204289  76.6900318  21.3850077
  28.9515554  73.2483260  21.7242174  29.7246430  72.7012247  21.5855050
  29.3040953  74.1127510  21.9356636  30.7900596  74.5759642  34.9309074
  30.4990462  75.4805273  34.8155740  31.4257581  74.6176170  35.6453143
  31.7156803  71.9536491  31.5210433  32.3120375  71.7292513  30.8067396
  31.7731775  71.2121236  32.1235881  31.2881832  69.4075926  19.3560624
  31.5407352  68.8857448  18.5944087  30.3506391  69.2442072  19.4587308
  36.3325114  68.4111705  27.1635367  37.1188204  67.9931128  26.8125784
  36.5963819  69.3157797  27.3317016  36.5035192  73.8484555  21.8624024
  35.8681025  73.9219181  22.5744929  36.1732598  74.4378154  21.1843103
  31.0078120  71.3104032  21.5584999  30.8914378  70.6348936  22.2266083
  31.1180380  70.8236406  20.7417152  33.3509661  70.7714179  25.2631688
  32.9867869  70.2444800  25.9744610  34.2076777  70.3812648  25.0898174
  39.2558962  62.0608512  32.5262954  38.9242287  62.9303923  32.3024169
  38.6604575  61.7444796  33.2056985  32.9915148  65.8004079  20.2593037
  33.1589551  66.6684315  20.6263508  32.8012317  65.9631361  19.3354326
  35.7490481  74.2621058  31.9258867  35.4491205  75.1646097  31.8174674
  35.4041541  73.9953241  32.7780020  29.2002963  70.7134855  27.9595572
  28.2753459  70.5811069  28.1673263  29.4487376  71.4929074  28.4565514
  39.1487625  66.7803598  29.6056305  38.2404503  66.7119007  29.3115066
  39.0975221  67.2575543  30.4338130  32.9704369  68.2561737  21.2439704
  32.8503994  68.7018787  22.0825184  32.2756958  68.6047054  20.6853242
  26.5611774  70.3568128  28.7939361  26.6904155  70.6102607  29.7078772
  25.8809225  70.9495836  28.4744016  30.7311261  81.0265378  24.8929835
  30.6535291  81.9773203  24.9718315  30.1272905  80.6811251  25.5504761
  33.2228491  68.1993244  37.5491202  32.4461825  68.7587164  37.5394066
  33.8619054  68.6850027  38.0706072  41.0149272  64.9820037  31.3834178
  40.3723652  65.2752570  30.7373973  40.5104200  64.8672957  32.1887375
  38.6689435  68.7283210  22.0720038  39.5807291  68.9610596  21.8967735
  38.1599082  69.3120254  21.5095116  31.4774863  71.0078697  37.1109169
  32.2189548  71.5463741  36.8343992  30.7711849  71.6344986  37.2680721
  33.3061273  68.0880444  33.0814887  34.1522468  68.5119858  33.2249536
  33.2459911  67.4314069  33.7753450  36.4560718  65.7484813  34.7396061
  36.2121650  66.5026873  34.2030337  36.7320649  66.1270160  35.5743308
  36.0125410  64.9041246  30.3209899  35.1509889  65.2022499  30.6126636
  36.0387845  65.1211645  29.3890931  32.8286979  73.4483436  26.7283704
  33.2925325  73.7271139  25.9388327  32.5643778  72.5466881  26.5456795
  29.7211061  72.9954918  29.6663468  30.2912418  73.4242186  29.0280952
  30.3119172  72.7137503  30.3647653  31.7655866  69.5706589  23.5373269
  32.4679909  70.0227632  24.0047196  31.4336494  68.9290408  24.1653163
  30.2136227  68.1618345  37.9124479  29.5834888  68.8434626  38.1459876
  30.1072315  68.0501427  36.9677617  25.5081200  67.8290141  28.8390403
  24.7180253  68.0847670  28.3630514  25.9992447  68.6438479  28.9442444
  27.4595945  68.1934721  25.7973880  26.6627108  68.3053415  26.3157375
  27.2321537  68.5321373  24.9314770  33.2901613  74.7179424  33.7456394
  33.3546045  75.1799831  34.5814566  32.5812536  74.0876789  33.8738704
  23.7918902  68.0820632  31.2705394  24.0426941  68.9667642  31.5362970
  24.3278451  67.9025233  30.4980486  33.0049630  76.3847531  23.6135375
  32.8695305  77.2299067  24.0420222  33.5459443  76.5866809  22.8501308
  29.4916970  62.4639111  40.2749730  29.0983915  61.9105310  40.9497374
  30.3083110  62.7749690  40.6656247  26.4579028  73.9022969  24.1863300
  26.9703548  74.6966220  24.3368864  27.1101740  73.2049260  24.1196901
  28.2673912  77.0188726  26.2686053  28.4440541  77.9406690  26.0807037
  29.0630746  76.7047145  26.6980433  32.4084931  63.8796990  37.8669986
  33.1494644  64.4804143  37.7874449  32.6402854  63.1374628  37.3088029
  27.5526269  69.0653357  36.1448216  27.4379784  68.1638615  36.4455315
  26.6970787  69.3117054  35.7933033  34.6318107  77.0071098  37.7435717
  34.1881961  76.2207476  37.4256621  35.2935320  77.1950248  37.0779608
  29.3905228  78.5366899  32.2696395  29.9412653  78.4083963  31.4973389
  28.5516704  78.8361788  31.9191288  33.1872399  74.8018027  36.6140626
  33.7200736  74.0406315  36.3839934  32.6586480  74.5091679  37.3564781
  36.3542094  59.9078093  32.1434268  36.0106363  60.7979735  32.0673379
  36.7221056  59.7179751  31.2803853  24.4227944  72.2311624  24.9622870
  25.2603166  72.6408632  24.7456578  24.6006212  71.2911066  24.9323064
  36.3192376  69.8986704  20.6506703  35.8039000  70.6691309  20.8895091
  36.0469685  69.2251840  21.2739765  33.9039487  64.7436405  25.7091942
  33.0481084  64.3543255  25.5297580  34.3166439  64.8228366  24.8491727
  35.4338634  62.2782748  30.1083501  34.9303430  62.2412883  29.2951307
  35.7269241  63.1875491  30.1680158  31.6781520  62.3621478  29.1149683
  32.5434517  62.1664287  28.7555573  31.7459029  62.1331830  30.0419040
  41.2926651  72.6519059  22.5859877  40.5156093  72.3130218  22.1415039
  41.9718132  72.6571682  21.9114842  36.1078680  67.7713796  22.4766484
  35.8028815  68.0859946  23.3276628  37.0609122  67.8495216  22.5193817
  34.5525111  73.9304020  24.1259438  34.0246473  73.1956779  23.8132676
  34.0512614  74.7078696  23.8799407  29.2843839  64.5923686  26.4866050
  29.8587591  64.3698867  25.7539243  29.8714822  64.6612380  27.2394651
  38.3423416  70.4797413  27.2930426  38.8555298  71.1127405  27.7952136
  38.9924640  69.8798608  26.9273786  29.6113426  66.6228147  20.5061935
  28.7750738  66.9602834  20.8271210  29.4718196  66.4877127  19.5689072
  31.5866507  61.4664935  25.2141119  30.9330919  61.1513952  24.5897734
  31.5446981  60.8440675  25.9400942  32.6977712  71.7484230  17.1294411
  31.7904773  71.5173483  17.3285560  33.1948744  70.9521849  17.3168393
  35.6045791  80.4581737  20.0491098  34.9307489  80.7613434  20.6576055
  35.9911613  81.2610817  19.6996555  34.8204247  67.9546868  29.5388767
  33.9026809  68.1761815  29.3810455  35.2364391  68.0293179  28.6800474
  35.6039295  69.3538284  24.6691447  36.3511114  69.8659681  24.3598569
  35.8730884  69.0322337  25.5295841  33.8765945  71.8496825  21.6518402
  32.9677164  71.5655858  21.7490871  33.9061029  72.2695903  20.7921708
  38.0518132  66.3895400  26.6510237  37.3140889  65.8772787  26.9820479
  38.3044906  65.9495782  25.8393513  37.5518152  77.2979911  26.3559387
  37.8441126  77.8584968  25.6371753  38.0616772  77.5908472  27.1112546
  38.1529759  59.1671652  27.2452006  38.4588636  58.3069016  26.9577921
  38.8782364  59.7589273  27.0451000  24.4454115  69.5702339  25.6333604
  24.2478515  68.9771700  24.9084670  23.8900779  69.2654549  26.3509543
  32.4250839  69.4625445  27.7528197  32.4799449  68.5099282  27.6770673
  31.6142041  69.6184884  28.2369495  33.5742033  73.3905568  18.9906480
  33.1361463  72.6741427  18.5312117  34.3152474  73.6181683  18.4291571
  30.3643199  68.0802505  25.5118576  29.5511065  68.3796676  25.9183768
  30.8602193  67.6858194  26.2293058  32.5151777  78.0760262  27.4452840
  32.4727956  78.3021108  26.5161372  33.4314476  77.8423637  27.5938642
  35.9617411  68.5444330  34.3433470  36.3166798  68.7715803  35.2027935
  36.6089542  68.8762706  33.7210725  41.6915148  71.6662766  25.0482799
  41.5533046  71.8564361  24.1203988  41.3351366  72.4282148  25.5050850
  29.8557274  65.6520861  31.1279811  30.4956653  65.5109620  30.4302774
  29.0234804  65.3655374  30.7518413  30.6317578  74.9523291  27.2414803
  31.4258176  74.4573611  27.0397378  29.9209270  74.4241154  26.8782509
  35.4512422  77.3341387  31.5927171  35.5049444  77.9032323  32.3604887
  34.5827204  77.5043272  31.2281208  26.9400341  69.0966373  23.3174556
  26.0097929  69.0350828  23.5344518  27.0357813  68.5742326  22.5211197
  26.8585890  65.6221186  25.9052797  27.1192708  66.5366519  25.7961958
  27.6803063  65.1545628  26.0549410  28.3310816  67.0358943  33.0751622
  29.0033869  66.8276305  32.4264271  27.5040602  66.8381029  32.6356854
  34.2336388  63.6620884  35.0917283  33.5864303  64.3610833  34.9981759
  35.0037403  64.0957028  35.4593531  34.4100522  71.5001649  33.1514103
  35.3392582  71.6512808  32.9783070  33.9891552  71.5885669  32.2962749
  33.2088854  75.5252313  30.9212640  33.0699939  75.1571097  31.7938578
  32.4203450  76.0399953  30.7496598  33.8037006  80.6261410  22.2638177
  33.9788761  80.1549453  23.0783799  33.1169794  81.2527176  22.4919437
  34.7594069  74.9033916  28.3101478  34.4243901  74.8634686  29.2059128
  34.2598015  74.2378632  27.8371888  28.7338313  70.3101546  33.8354059
  28.5958111  69.5781785  34.4365598  29.6443236  70.2210446  33.5538247
  37.6953261  72.2489950  18.5838538  37.0782431  71.5236778  18.4871590
  37.2269749  73.0099310  18.2405612  31.3620613  70.0221505  33.3237739
  32.0720232  69.3814697  33.2824357  31.3189922  70.2734400  34.2463920
  30.0749547  67.0086723  35.1433378  29.5386904  66.5577461  35.7954975
  29.4866256  67.1432632  34.4003843  28.3698091  83.7750772  29.0378037
  28.6094689  84.4069296  29.7157055  27.5267287  83.4238812  29.3243396
  29.4851806  66.4675374  17.7059842  28.6081273  66.3464175  17.3422089
  29.9609559  65.6761453  17.4538731  21.0053947  71.2552534  27.8001349
  21.6924986  70.9414264  27.2122364  20.8502075  72.1593899  27.5268601
  25.8088669  66.1442731  32.2286373  25.7246857  65.5368400  31.4936783
  24.9871375  66.6351749  32.2295869  32.8825953  79.5829895  31.4419541
  32.8096124  80.3884866  31.9538845  32.4403346  79.7821861  30.6167562
  32.6715732  78.8201665  24.9522362  31.8883254  79.3623345  25.0460587
  33.3708478  79.3375644  25.3516604  35.9812383  64.6296294  27.5956568
  36.4781082  63.8766257  27.2757638  35.2099364  64.6660611  27.0299777
  35.3424636  79.4816729  33.5977700  36.0552609  80.1164194  33.5253601
  34.8514665  79.5780595  32.7817701  37.0642163  73.3867981  25.1694991
  36.1298442  73.5069444  24.9999696  37.2418832  72.4840448  24.9055001
  32.5647351  66.7713677  27.3228252  32.1945139  66.2184718  28.0109158
  33.0606444  66.1671811  26.7703252  40.4514715  69.2285301  25.7045025
  40.9175167  70.0613292  25.6305328  40.9022215  68.7630282  26.4090284
  30.3936550  77.2311172  34.4183270  31.0946009  77.8647655  34.5712665
  29.9231665  77.5725904  33.6578910  38.5190946  75.5729122  22.7031177
  38.7950790  75.4585717  23.6125052  37.6495444  75.1746607  22.6643351
  38.4231377  61.5965888  29.7435927  37.5094457  61.8270115  29.9118134
  38.8524479  61.6804332  30.5949959  38.1937836  69.7855780  32.2435821
  37.5409286  70.0331687  31.5888274  38.5718216  68.9719918  31.9098298
  35.1545010  79.8215473  26.3463991  35.3367404  79.0037129  26.8091743
  35.9777996  80.0383165  25.9088881  35.4887175  78.7483658  23.6079040
  36.0174942  78.2376113  22.9949202  35.7515395  78.4326188  24.4724573
  34.2425409  70.5275591  38.7301858  33.5666046  70.4269720  39.4004233
  35.0653043  70.3714804  39.1937855  25.9904268  76.7647527  31.3514373
  26.5757705  76.0191215  31.4842277  25.7929106  77.0751484  32.2351037
  28.8442923  79.7998775  26.3676815  28.1753298  80.2844902  25.8840856
  28.7055793  80.0467995  27.2820194  20.5821923  69.3353128  30.0718816
  20.6206022  68.8016718  30.8655934  20.0762216  68.8088333  29.4529793
  32.9848192  81.8342518  32.9659474  33.5366500  81.9974140  33.7308559
  33.3254385  82.4246956  32.2939499  27.9612685  64.1817668  33.5681359
  28.0254011  65.0432499  33.1558756  27.8979805  63.5691670  32.8353717
  27.4364958  66.2540801  37.2154393  28.0636996  65.8717878  37.8291917
  26.5792876  66.0355002  37.5810085  24.2130500  68.0617230  23.1472748
  24.5083941  67.1527908  23.0939801  23.3118536  68.0404969  22.8253750
  27.7424747  66.1373226  29.1300296  27.0211333  66.7509194  28.9907770
  28.5318003  66.6730991  29.0516942  30.5451061  63.4727653  35.4040948
  31.0685463  63.7189949  36.1667257  30.3263394  64.3047688  34.9844085
  25.9418342  65.7431327  23.2712073  25.6131048  64.8628706  23.0887179
  26.2957713  65.6878996  24.1588462  35.1897921  77.3786230  27.7807058
  35.0422883  76.4502937  27.9614628  36.0151414  77.4006321  27.2964134
  29.0560165  66.0304297  23.6387550  29.3956238  66.5590218  22.9166159
  29.5032285  66.3684703  24.4146117  31.7503606  64.4141348  33.0890619
  31.4100426  63.6149161  33.4911298  31.0442612  64.7143059  32.5167452
  32.4020078  61.4990660  31.5417942  33.2246147  61.0251138  31.4196832
  32.6458141  62.2781144  32.0416628  31.0428312  64.5278919  21.8380843
  31.7636675  64.9060171  21.3344560  30.4193616  65.2467796  21.9415821
  35.1859435  65.2324068  22.7739176  35.4023049  66.1148706  22.4728004
  34.7053502  64.8410281  22.0444818  29.9258656  68.1909781  29.3509920
  29.7803237  68.5050084  30.2434202  29.4483860  68.8094681  28.7980819
  31.7855039  65.1812329  29.3990810  31.7716608  64.2853422  29.0623108
  32.5027467  65.1882993  30.0329096  33.6381170  65.6149669  31.4443937
  33.3798948  66.5366740  31.4428268  33.1066210  65.2180104  32.1344401
  24.4004319  70.7315125  32.2897581  23.8557787  71.5074933  32.4217856
  25.2783668  71.0785930  32.1316703  31.1891935  64.0626709  24.6678380
  31.3107846  63.1343355  24.8669267  30.8993978  64.0765395  23.7556695
  34.0583126  61.7481620  27.8045100  34.0804822  61.8120953  26.8497079
  34.4751185  60.9086128  27.9985606  25.1870340  69.8585022  35.1827738
  24.4452076  70.0067657  35.7692369  24.8663085  70.1193287  34.3194488
  33.1314003  79.4001000  34.9808128  33.4401130  79.1550147  35.8530828
  33.9289485  79.6047638  34.4926998  33.1534615  81.5538909  27.2113505
  32.7139605  81.0615288  27.9046361  33.9042732  81.0111877  26.9705580
  25.6326954  77.7450450  27.2138133  26.4584974  77.4454222  26.8336776
  25.2821006  76.9758073  27.6627921  30.6008487  77.0976919  29.2835806
  29.9788497  76.4347624  28.9838034  31.2713354  77.1238050  28.6009454
  23.8335559  75.6636777  28.1727066  22.9967467  75.2358951  27.9911068
  23.8059205  75.8569220  29.1097858  30.6733015  65.5758707  38.8768312
  30.7221170  66.4520829  38.4946082  31.2155529  65.0336100  38.3039956
  30.1621994  75.6480842  22.7594267  30.3110115  76.3316306  22.1060940
  30.9688438  75.6285932  23.2743723  32.9032303  66.3290079  35.6314671
  32.0335613  66.6223645  35.3597260  33.1391784  66.9130524  36.3521935
  27.9174627  71.6746019  23.7655336  27.6720669  70.7708349  23.9635546
  28.0870542  71.6763170  22.8234814  35.6071337  62.5469696  33.1480091
  36.1253281  63.2830723  32.8226580  35.2526470  62.8533689  33.9826851
  27.1870275  67.4074377  21.2641497  26.4939520  67.4818732  20.6081533
  26.9422027  66.6434721  21.7863014  35.8583931  58.9669978  28.6680988
  36.1385685  58.2993167  29.2941415  36.6434538  59.1599074  28.1555652
  33.6617400  78.1428972  20.2306014  33.0891367  78.7619159  19.7776486
  34.2350193  78.6928334  20.7645936  39.7292790  67.3887612  32.4152563
  40.6810212  67.4885710  32.4364787  39.5596240  66.5965881  32.9250648
  37.7507169  64.4743196  32.6011964  37.1557101  64.7548208  31.9058453
  37.4656866  64.9637097  33.3728705  36.8814659  78.4266122  21.3614597
  37.8145333  78.3611684  21.5647472  36.7937872  79.2622389  20.9029129
  39.5102676  77.7431993  18.3218544  39.4316308  77.4091856  19.2154302
  40.3312343  78.2353761  18.3210017  34.0464198  69.4789785  17.5722067
  34.9923303  69.3495993  17.6410485  33.6678443  68.7404447  18.0491495
  40.0186083  61.1445791  27.5348959  39.8210904  60.8360879  28.4192291
  40.6285788  61.8707430  27.6646889  33.9302891  73.5307531  39.0322724
  34.8505900  73.7086130  39.2262770  33.8952474  72.5863577  38.8802423
  32.2307115  67.4039761  17.5076952  31.3238571  67.1072874  17.5839666
  32.5083096  67.1069580  16.6411238  23.1485056  68.7246125  27.9575999
  22.8287840  67.8711433  27.6650373  22.6018484  68.9394703  28.7133966
  26.9264963  71.4408566  31.6745505  27.1450973  72.3725674  31.6933539
  27.3390737  71.0816540  32.4600309  33.8469181  61.9476651  23.6621193
  33.0369909  61.6023736  24.0376439  34.5353598  61.6384195  24.2508805
  35.7759729  61.0254698  25.2845490  36.3290768  61.4450151  25.9435513
  36.0129816  60.0990446  25.3268446  31.7992829  67.0141772  41.0648254
  31.6989556  67.9636129  40.9960345  31.5814371  66.6860011  40.1924324
  31.0005900  64.2626697  17.6488931  31.8625064  64.5881595  17.9084749
  31.1856244  63.4758193  17.1361997  23.0173316  72.3449036  29.9269120
  22.3236787  71.9302989  29.4139074  23.7646307  72.3869573  29.3302539
  39.1538536  63.1355223  24.7924154  38.5737206  63.7940027  24.4102207
  38.8874469  62.3132568  24.3811572  37.6042103  62.5360281  26.9945475
  38.1041881  62.6476815  26.1859793  38.2477711  62.2321334  27.6346283
  31.6624099  70.4438910  39.8813316  31.1791180  71.2439271  40.0877205
  31.7485038  70.4546855  38.9280760  24.9310058  72.2767290  27.8035135
  24.9080746  72.3754977  26.8517018  25.2410695  73.1232441  28.1252301
  27.5897436  74.3343445  31.9181749  28.5440690  74.3027387  31.8511681
  27.3909960  73.8734069  32.7331975  28.1796818  72.9044561  34.4852547
  28.9989707  73.3988640  34.5087384  28.4533626  71.9876529  34.4570115
  37.9363414  65.2955314  23.8480503  37.0489270  65.5804964  23.6300697
  38.3517404  65.1349077  23.0007779  41.2877951  65.3201834  27.5634842
  42.0638341  65.8098287  27.8359459  40.5626085  65.7459889  28.0206711
  25.9447665  79.8763065  28.9351947  25.8102133  79.1163466  28.3689945
  25.5279727  80.6003965  28.4680736  37.0806628  75.0599988  17.9428523
  37.7842478  75.2649991  18.5586178  36.3569277  75.6276750  18.2077606
  37.9104438  70.8109849  24.0630793  37.8539640  71.2678401  23.2238425
  38.4632781  70.0500534  23.8853635  41.7209244  66.5999581  24.8880912
  41.4646178  66.1996217  25.7189120  41.0962112  67.3143375  24.7631051
  29.1016791  80.7732382  29.1470390  28.9849175  81.7177814  29.0449080
  28.2809237  80.4705943  29.5356189  38.9893325  75.4982517  19.9926983
  39.8238929  75.0663716  19.8104457  38.8277668  75.3264531  20.9203877
  38.6439218  72.0014631  21.3583322  38.5888021  71.8358902  20.4171766
  38.0185273  72.7090664  21.5145512  23.4331733  67.2382695  35.1844744
  24.0790596  66.7281649  35.6731969  23.2248884  67.9751377  35.7588169
  31.9535343  61.5022740  20.9368640  31.9414013  62.4464580  21.0936911
  32.8458765  61.3192885  20.6428101  30.1271305  81.4260644  32.3626318
  31.0298552  81.4584254  32.6792813  29.9008675  80.4961095  32.3772654
  31.8824907  80.1791630  29.0236397  30.9320538  80.1793492  28.9100769
  32.1857393  79.4324365  28.5072432  35.7687462  58.0965516  25.1914577
  35.0019858  57.5424003  25.3371259  36.1798167  58.1687385  26.0528729
  27.7729224  64.3850312  39.2819758  28.6360685  64.0287117  39.4923083
  27.1994634  64.0464207  39.9695163  45.8653681  91.4886041  21.3255040
  45.2141661  92.0740121  20.9389054  46.6598044  92.0192236  21.3850077
  43.8308903  81.1295997  20.2593037  43.9983305  81.9976233  20.6263508
  43.6406072  81.2923278  19.3354326  41.5705016  96.3557296  24.8929835
  41.4929045  97.3065121  24.9718315  40.9666659  96.0103168  25.5504761
  34.6312657  83.4112549  31.2705394  34.8820695  84.2959559  31.5362970
  35.1672205  83.2317151  30.4980486  39.1067667  92.3480643  26.2686053
  39.2834295  93.2698608  26.0807037  39.9024500  92.0339062  26.6980433
  38.3920023  84.3945275  36.1448216  38.2773538  83.4930532  36.4455315
  37.5364541  84.6408972  35.7933033  40.2298982  93.8658817  32.2696395
  40.7806407  93.7375880  31.4973389  39.3910458  94.1653706  31.9191288
  43.5371466  87.0776148  17.1294411  42.6298528  86.8465401  17.3285560
  44.0342498  86.2813767  17.3168393  46.4439545  95.7873655  20.0491098
  45.7701244  96.0905352  20.6576055  46.8305367  96.5902735  19.6996555
  44.4135787  88.7197486  18.9906480  43.9755217  88.0033345  18.5312117
  45.1546228  88.9473601  18.4291571  43.3545531  93.4052180  27.4452840
  43.3121710  93.6313026  26.5161372  44.2708230  93.1715554  27.5938642
  44.6430760  95.9553327  22.2638177  44.8182516  95.4841370  23.0783799
  43.9563548  96.5819093  22.4919437  48.5347015  87.5781868  18.5838538
  47.9176186  86.8528696  18.4871590  48.0663503  88.3391228  18.2405612
  39.2091845  99.1042690  29.0378037  39.4488444  99.7361214  29.7157055
  38.3661042  98.7530730  29.3243396  40.3245561  81.7967292  17.7059842
  39.4475027  81.6756093  17.3422089  40.8003314  81.0053370  17.4538731
  31.8447701  86.5844452  27.8001349  32.5318741  86.2706182  27.2122364
  31.6895830  87.4885816  27.5268601  36.6482423  81.4734648  32.2286373
  36.5640612  80.8660318  31.4936783  35.8265130  81.9643667  32.2295869
  43.7219707  94.9121812  31.4419541  43.6489879  95.7176784  31.9538845
  43.2797100  95.1113778  30.6167562  43.5109487  94.1493582  24.9522362
  42.7277009  94.6915263  25.0460587  44.2102232  94.6667562  25.3516604
  41.2330304  92.5603090  34.4183270  41.9339764  93.1939573  34.5712665
  40.7625419  92.9017821  33.6578910  45.9938764  95.1507391  26.3463991
  46.1761159  94.3329046  26.8091743  46.8171750  95.3675083  25.9088881
  46.3280930  94.0775576  23.6079040  46.8568696  93.5668030  22.9949202
  46.5909149  93.7618106  24.4724573  36.8298022  92.0939445  31.3514373
  37.4151459  91.3483133  31.4842277  36.6322861  92.4043402  32.2351037
  39.6836678  95.1290692  26.3676815  39.0147053  95.6136820  25.8840856
  39.5449547  95.3759913  27.2820194  31.4215677  84.6645045  30.0718816
  31.4599777  84.1308636  30.8655934  30.9155970  84.1380251  29.4529793
  43.8241946  97.1634436  32.9659474  44.3760254  97.3266057  33.7308559
  44.1648140  97.7538874  32.2939499  38.2758712  81.5832718  37.2154393
  38.9030751  81.2009796  37.8291917  37.4186631  81.3646920  37.5810085
  35.0524255  83.3909147  23.1472748  35.3477696  82.4819826  23.0939801
  34.1512291  83.3696887  22.8253750  49.4221113  94.0492374  24.2234023
  49.5957991  93.4838796  23.4707875  49.9150004  94.8493269  24.0413512
  35.2398073  86.0607043  32.2897581  34.6951541  86.8366851  32.4217856
  36.1177423  86.4077847  32.1316703  50.4096286  93.3659138  21.3230921
  51.1047190  93.9865831  21.5418235  50.7519436  92.5154490  21.5983299
  36.0264095  85.1876939  35.1827738  35.2845831  85.3359575  35.7692369
  35.7056839  85.4485205  34.3194488  43.9707758  94.7292917  34.9808128
  44.2794884  94.4842064  35.8530828  44.7683240  94.9339556  34.4926998
  43.9928370  96.8830827  27.2113505  43.5533360  96.3907206  27.9046361
  44.7436487  96.3403795  26.9705580  36.4720709  93.0742368  27.2138133
  37.2978729  92.7746140  26.8336776  36.1214761  92.3049990  27.6627921
  44.5011154  93.4720890  20.2306014  43.9285121  94.0911077  19.7776486
  45.0743948  94.0220252  20.7645936  47.7208414  93.7558040  21.3614597
  48.6539087  93.6903602  21.5647472  47.6331627  94.5914307  20.9029129
  50.3496431  93.0723910  18.3218544  50.2710062  92.7383774  19.2154302
  51.1706097  93.5645678  18.3210017  44.8857953  84.8081703  17.5722067
  45.8317057  84.6787911  17.6410485  44.5072198  84.0696365  18.0491495
  43.0700870  82.7331679  17.5076952  42.1632325  82.4364792  17.5839666
  43.3476851  82.4361497  16.6411238  33.9878810  84.0538043  27.9575999
  33.6681595  83.2003351  27.6650373  33.4412238  84.2686621  28.7133966
  41.8399654  79.5918614  17.6488931  42.7018818  79.9173513  17.9084749
  42.0249999  78.8050110  17.1361997  38.4291191  89.6635363  31.9181749
  39.3834444  89.6319305  31.8511681  38.2303714  89.2025987  32.7331975
  39.0190573  88.2336479  34.4852547  39.8383462  88.7280558  34.5087384
  39.2927380  87.3168447  34.4570115  36.7841419  95.2054982  28.9351947
  36.6495887  94.4455383  28.3689945  36.3673482  95.9295882  28.4680736
  47.9200382  90.3891906  17.9428523  48.6236233  90.5941908  18.5586178
  47.1963031  90.9568668  18.2077606  39.9410545  96.1024299  29.1470390
  39.8242929  97.0469732  29.0449080  39.1202992  95.7997861  29.5356189
  49.8287080  90.8274435  19.9926983  50.6632684  90.3955634  19.8104457
  49.6671423  90.6556449  20.9203877  34.2725487  82.5674613  35.1844744
  34.9184351  82.0573567  35.6731969  34.0642638  83.3043294  35.7588169
  42.7929097  76.8314657  20.9368640  42.7807767  77.7756497  21.0936911
  43.6852519  76.6484803  20.6428101  40.9665059  96.7552561  32.3626318
  41.8692306  96.7876172  32.6792813  40.7402429  95.8253012  32.3772654
  42.7218661  95.5083548  29.0236397  41.7714292  95.5085409  28.9100769
  43.0251148  94.7616282  28.5072432  38.6122978  79.7142230  39.2819758
  39.4754440  79.3579035  39.4923083  38.0388389  79.3756125  39.9695163
  58.4571355 101.3444086  30.0882159  59.0949765 101.2250834  29.3845499
  58.3392198 102.2924930  30.1470111  55.2661061 101.2971514  30.0243684
  54.9279573 101.1812579  29.1364219  56.1350829 100.8962679  30.0044690
  51.1247877 103.1506991  26.0140575  50.5612742 103.0596928  25.2456863
  51.0100272 102.3306895  26.4943068  55.7480844 102.4506366  35.9829890
  55.7369485 102.0559164  35.1110393  55.9101484 101.7172439  36.5763661
  48.6712309 104.6458182  28.8524795  49.4633601 104.3049007  28.4371095
  48.9108959 104.7553157  29.7726949  56.7047436 106.8177958  21.3255040
  56.0535415 107.4032039  20.9389054  57.4991798 107.3484153  21.3850077
  50.6303063 103.9067096  21.7242174  51.4033939 103.3596083  21.5855050
  50.9828462 104.7711345  21.9356636  52.4688105 105.2343478  34.9309074
  52.1777971 106.1389109  34.8155740  53.1045090 105.2760005  35.6453143
  53.3944312 102.6120326  31.5210433  53.9907884 102.3876349  30.8067396
  53.4519284 101.8705072  32.1235881  52.9669341 100.0659762  19.3560624
  53.2194861  99.5441283  18.5944087  52.0293900  99.9025907  19.4587308
  58.0112623  99.0695540  27.1635367  58.7975713  98.6514963  26.8125784
  58.2751328  99.9741632  27.3317016  58.1822701 104.5068390  21.8624024
  57.5468534 104.5803017  22.5744929  57.8520107 105.0961989  21.1843103
  63.4121051  99.0070773  28.0668346  64.1446222  98.4369990  28.3006175
  62.6560406  98.6192374  28.5074851  52.6865629 101.9687868  21.5584999
  52.5701887 101.2932771  22.2266083  52.7967889 101.4820242  20.7417152
  55.0297170 101.4298015  25.2631688  54.6655378 100.9028636  25.9744610
  55.8864286 101.0396484  25.0898174  54.6702657  96.4587914  20.2593037
  54.8377060  97.3268151  20.6263508  54.4799826  96.6215196  19.3354326
  57.4277990 104.9204893  31.9258867  57.1278714 105.8229932  31.8174674
  57.0829050 104.6537077  32.7780020  50.8790472 101.3718690  27.9595572
  49.9540968 101.2394904  28.1673263  51.1274885 102.1512909  28.4565514
  60.8275134  97.4387434  29.6056305  59.9192012  97.3702842  29.3115066
  60.7762730  97.9159378  30.4338130  54.6491878  98.9145572  21.2439704
  54.5291503  99.3602623  22.0825184  53.9544467  99.2630890  20.6853242
  48.2399283 101.0151964  28.7939361  48.3691664 101.2686443  29.7078772
  47.5596734 101.6079672  28.4744016  52.4098770 111.6849214  24.8929835
  52.3322800 112.6357039  24.9718315  51.8060414 111.3395086  25.5504761
  54.9016000  98.8577079  37.5491202  54.1249334  99.4170999  37.5394066
  55.5406563  99.3433862  38.0706072  62.6936781  95.6403872  31.3834178
  62.0511161  95.9336405  30.7373973  62.1891709  95.5256792  32.1887375
  60.3476944  99.3867045  22.0720038  61.2594800  99.6194432  21.8967735
  59.8386591  99.9704089  21.5095116  53.1562372 101.6662532  37.1109169
  53.8977057 102.2047576  36.8343992  52.4499358 102.2928821  37.2680721
  58.6317712 103.8091673  35.7081330  59.0401068 103.3674083  34.9635963
  57.9094973 103.2344300  35.9615523  54.9848782  98.7464280  33.0814887
  55.8309977  99.1703693  33.2249536  54.9247420  98.0897904  33.7753450
  58.9546527 104.3692864  29.4633619  58.3255389 104.5338578  28.7609687
  58.5672189 104.7834473  30.2344583  62.8335758 105.3047301  26.8177983
  62.1486797 105.6846203  26.2675016  62.9179608 105.9142628  27.5509931
  58.1348227  96.4068648  34.7396061  57.8909159  97.1610709  34.2030337
  58.4108158  96.7853996  35.5743308  60.0886690 102.9507260  33.4173326
  60.3003585 103.5939020  32.7407708  60.0416438 102.1169577  32.9495257
  57.6912919  95.5625081  30.3209899  56.8297398  95.8606335  30.6126636
  57.7175354  95.7795480  29.3890931  54.5074488 104.1067272  26.7283704
  54.9712834 104.3854975  25.9388327  54.2431287 103.2050716  26.5456795
  51.3998570 103.6538753  29.6663468  51.9699927 104.0826022  29.0280952
  51.9906681 103.3721338  30.3647653  53.4443375 100.2290424  23.5373269
  54.1467418 100.6811468  24.0047196  53.1124003  99.5874243  24.1653163
  51.8923736  98.8202181  37.9124479  51.2622397  99.5018461  38.1459876
  51.7859824  98.7085262  36.9677617  61.2032518 105.8279216  31.5895684
  62.0249962 105.4259403  31.3078365  61.1994921 105.7247450  32.5411800
  49.1383454  98.8518556  25.7973880  48.3414617  98.9637250  26.3157375
  48.9109046  99.1905208  24.9314770  54.9689121 105.3763259  33.7456394
  55.0333554 105.8383666  34.5814566  54.2600045 104.7460624  33.8738704
  45.4706411  98.7404467  31.2705394  45.7214450  99.6251477  31.5362970
  46.0065960  98.5609069  30.4980486  69.2938511 102.1717964  27.9380655
  68.5402219 101.6025362  27.7824660  69.4286052 102.1380629  28.8851290
  54.6837139 107.0431367  23.6135375  54.5482814 107.8882902  24.0420222
  55.2246952 107.2450644  22.8501308  48.1366537 104.5606805  24.1863300
  48.6491057 105.3550055  24.3368864  48.7889249 103.8633095  24.1196901
  49.9461421 107.6772561  26.2686053  50.1228050 108.5990526  26.0807037
  50.7418255 107.3630980  26.6980433  49.2313778  99.7237193  36.1448216
  49.1167293  98.8222450  36.4455315  48.3758296  99.9700890  35.7933033
  56.3105616 107.6654933  37.7435717  55.8669470 106.8791312  37.4256621
  56.9722829 107.8534084  37.0779608  51.0692737 109.1950735  32.2696395
  51.6200162 109.0667798  31.4973389  50.2304213 109.4945624  31.9191288
  58.4086854 107.9457733  35.7717118  58.3905329 108.7666614  35.2797387
  59.3306774 107.8211808  35.9967259  54.8659908 105.4601863  36.6140626
  55.3988245 104.6990151  36.3839934  54.3373989 105.1675514  37.3564781
  46.1015453 102.8895459  24.9622870  46.9390675 103.2992467  24.7456578
  46.2793721 101.9494901  24.9323064  57.9979885 100.5570540  20.6506703
  57.4826509 101.3275144  20.8895091  57.7257194  99.8835676  21.2739765
  55.5826996  95.4020240  25.7091942  54.7268593  95.0127091  25.5297580
  55.9953948  95.4812201  24.8491727  62.9714160 103.3102894  22.5859877
  62.1943602 102.9714054  22.1415039  63.6505641 103.3155517  21.9114842
  57.7866189  98.4297632  22.4766484  57.4816324  98.7443781  23.3276628
  58.7396631  98.5079052  22.5193817  56.2312620 104.5887855  24.1259438
  55.7033982 103.8540615  23.8132676  55.7300123 105.3662531  23.8799407
  61.2105466 102.7836876  29.2426485  60.5529141 103.4736137  29.3306613
  62.0145866 103.1733307  29.5860471  50.9631348  95.2507521  26.4866050
  51.5375100  95.0282703  25.7539243  51.5502331  95.3196216  27.2394651
  60.0210925 101.1381248  27.2930426  60.5342807 101.7711240  27.7952136
  60.6712149 100.5382444  26.9273786  51.2900935  97.2811982  20.5061935
  50.4538247  97.6186669  20.8271210  51.1505705  97.1460962  19.5689072
  54.3765221 102.4068065  17.1294411  53.4692282 102.1757319  17.3285560
  54.8736253 101.6105685  17.3168393  56.4991756  98.6130704  29.5388767
  55.5814318  98.8345651  29.3810455  56.9151900  98.6877014  28.6800474
  57.2826804 100.0122119  24.6691447  58.0298623 100.5243517  24.3598569
  57.5518393  99.6906172  25.5295841  55.5553454 102.5080660  21.6518402
  54.6464673 102.2239693  21.7490871  55.5848538 102.9279739  20.7921708
  60.7872721 106.1187250  25.4209569  60.3335049 105.2778160  25.4774760
  60.1566688 106.7548648  25.7584349  59.7305641  97.0479236  26.6510237
  58.9928398  96.5356622  26.9820479  59.9832415  96.6079617  25.8393513
  59.2305661 107.9563746  26.3559387  59.5228635 108.5168803  25.6371753
  59.7404281 108.2492307  27.1112546  46.1241624 100.2286174  25.6333604
  45.9266024  99.6355535  24.9084670  45.5688288  99.9238384  26.3509543
  54.1038348 100.1209281  27.7528197  54.1586958  99.1683117  27.6770673
  53.2929550 100.2768720  28.2369495  55.2529542 104.0489404  18.9906480
  54.8148972 103.3325263  18.5312117  55.9939983 104.2765519  18.4291571
  52.0430708  98.7386340  25.5118576  51.2298574  99.0380511  25.9183768
  52.5389702  98.3442029  26.2293058  54.1939286 108.7344097  27.4452840
  54.1515465 108.9604944  26.5161372  55.1101985 108.5007472  27.5938642
  57.6404920  99.2028165  34.3433470  57.9954307  99.4299638  35.2027935
  58.2877051  99.5346542  33.7210725  63.3702657 102.3246601  25.0482799
  63.2320555 102.5148197  24.1203988  63.0138875 103.0865984  25.5050850
  63.3972036 104.3923128  30.0594070  63.8308543 104.2998417  30.9077124
  64.1103617 104.3680628  29.4214086  52.3105087 105.6107126  27.2414803
  53.1045685 105.1157447  27.0397378  51.5996779 105.0824990  26.8782509
  57.1299931 107.9925222  31.5927171  57.1836953 108.5616158  32.3604887
  56.2614713 108.1627107  31.2281208  48.6187850  99.7550208  23.3174556
  47.6885438  99.6934664  23.5344518  48.7145322  99.2326161  22.5211197
  64.2587586 104.4346829  32.5926956  64.4523476 105.3392639  32.8386230
  64.1588204 103.9754248  33.4265541  59.3202695 104.5853571  38.1667836
  59.1688201 104.3564123  37.2497920  59.3107374 105.5424173  38.1799181
  56.0888031 102.1585484  33.1514103  57.0180091 102.3096644  32.9783070
  55.6679061 102.2469505  32.2962749  54.8876363 106.1836148  30.9212640
  54.7487448 105.8154933  31.7938578  54.0990959 106.6983788  30.7496598
  55.4824515 111.2845245  22.2638177  55.6576270 110.8133288  23.0783799
  54.7957303 111.9111011  22.4919437  56.4381578 105.5617751  28.3101478
  56.1031410 105.5218521  29.2059128  55.9385524 104.8962467  27.8371888
  50.4125822 100.9685381  33.8354059  50.2745620 100.2365620  34.4365598
  51.3230745 100.8794281  33.5538247  59.3740769 102.9073785  18.5838538
  58.7569940 102.1820614  18.4871590  58.9057258 103.6683146  18.2405612
  53.0408122 100.6805340  33.3237739  53.7507741 100.0398533  33.2824357
  52.9977431 100.9318235  34.2463920  61.0294901 107.6172694  36.2444318
  60.9707447 106.9331914  35.5774901  61.4314420 108.3591684  35.7924944
  51.7537056  97.6670558  35.1433378  51.2174413  97.2161297  35.7954975
  51.1653765  97.8016467  34.4003843  51.1639315  97.1259210  17.7059842
  50.2868782  97.0048011  17.3422089  51.6397068  96.3345288  17.4538731
  61.0312308 105.5812278  34.4758298  60.1439087 105.2438200  34.5984697
  61.6010859 104.8495309  34.7127063  42.6841456 101.9136369  27.8001349
  43.3712495 101.5998100  27.2122364  42.5289584 102.8177734  27.5268601
  54.5613462 110.2413730  31.4419541  54.4883633 111.0468702  31.9538845
  54.1190855 110.4405696  30.6167562  54.3503241 109.4785500  24.9522362
  53.5670763 110.0207180  25.0460587  55.0495987 109.9959480  25.3516604
  57.6599892  95.2880130  27.5956568  58.1568591  94.5350092  27.2757638
  56.8886873  95.3244446  27.0299777  65.5129649 100.9920495  29.2374859
  65.5019525 101.8745211  28.8668792  64.6447028 100.6392046  29.0429396
  57.0212145 110.1400564  33.5977700  57.7340118 110.7748029  33.5253601
  56.5302174 110.2364430  32.7817701  58.7429672 104.0451817  25.1694991
  57.8085951 104.1653279  24.9999696  58.9206341 103.1424284  24.9055001
  54.2434860  97.4297513  27.3228252  53.8732648  96.8768553  28.0109158
  54.7393953  96.8255646  26.7703252  62.1302224  99.8869136  25.7045025
  62.5962676 100.7197128  25.6305328  62.5809724  99.4214118  26.4090284
  52.0724059 107.8895008  34.4183270  52.7733518 108.5231491  34.5712665
  51.6019174 108.2309739  33.6578910  60.1978455 106.2312957  22.7031177
  60.4738299 106.1169552  23.6125052  59.3282953 105.8330442  22.6643351
  59.8725345 100.4439615  32.2435821  59.2196795 100.6915522  31.5888274
  60.2505725  99.6303753  31.9098298  56.8332519 110.4799308  26.3463991
  57.0154913 109.6620964  26.8091743  57.6565505 110.6967000  25.9088881
  57.1674684 109.4067493  23.6079040  57.6962451 108.8959948  22.9949202
  57.4302904 109.0910024  24.4724573  55.9212918 101.1859426  38.7301858
  55.2453555 101.0853555  39.4004233  56.7440552 101.0298640  39.1937855
  47.6691777 107.4231363  31.3514373  48.2545214 106.6775051  31.4842277
  47.4716615 107.7335319  32.2351037  50.5230432 110.4582610  26.3676815
  49.8540807 110.9428738  25.8840856  50.3843302 110.7051830  27.2820194
  42.2609432  99.9936963  30.0718816  42.2993531  99.4600554  30.8655934
  41.7549724  99.4672168  29.4529793  54.6635701 112.4926354  32.9659474
  55.2154009 112.6557975  33.7308559  55.0041894 113.0830791  32.2939499
  49.1152466  96.9124636  37.2154393  49.7424505  96.5301713  37.8291917
  48.2580385  96.6938838  37.5810085  59.5146575 107.3187611  38.8208128
  60.0586479 107.9317569  38.3263083  58.9333420 107.8767189  39.3375141
  45.8918009  98.7201065  23.1472748  46.1871450  97.8111743  23.0939801
  44.9906045  98.6988804  22.8253750  57.8004088 110.4408329  29.9523156
  57.6755227 109.6398069  29.4434101  58.4583179 110.9354522  29.4637126
  59.8638996 108.2417349  31.5802706  58.9169332 108.1222700  31.5081033
  60.2121770 107.3539847  31.6628968  47.6205851  96.4015163  23.2712073
  47.2918557  95.5212542  23.0887179  47.9745222  96.3462831  24.1588462
  56.8685430 108.0370065  27.7807058  56.7210392 107.1086773  27.9614628
  57.6938923 108.0590156  27.2964134  50.7347674  96.6888132  23.6387550
  51.0743746  97.2174054  22.9166159  51.1819794  97.0268539  24.4146117
  60.4719552 108.8598624  28.8671931  61.3966099 108.6541485  28.7296382
  60.3034855 108.6115025  29.7761273  52.7215821  95.1862754  21.8380843
  53.4424184  95.5644007  21.3344560  52.0981125  95.9051631  21.9415821
  56.8646944  95.8907903  22.7739176  57.0810558  96.7732541  22.4728004
  56.3841011  95.4994116  22.0444818  51.6046165  98.8493616  29.3509920
  51.4590746  99.1633919  30.2434202  51.1271369  99.4678517  28.7980819
  60.2614868 109.3784292  24.2234023  60.4351745 108.8130714  23.4707875
  60.7543759 110.1785186  24.0413512  46.0791828 101.3898961  32.2897581
  45.5345296 102.1658769  32.4217856  46.9571177 101.7369765  32.1316703
  52.8679444  94.7210545  24.6678380  52.9895355  93.7927191  24.8669267
  52.5781487  94.7349230  23.7556695  66.1154259 102.1420715  25.8424322
  66.5585405 101.3928040  25.4443446  65.2380769 102.1330851  25.4598054
  46.8657849 100.5168857  35.1827738  46.1239585 100.6651492  35.7692369
  46.5450594 100.7777123  34.3194488  63.1481463 106.1450762  22.8518252
  63.6732787 106.4838034  22.1267572  63.0603816 105.2097777  22.6681386
  54.8101512 110.0584835  34.9808128  55.1188639 109.8133982  35.8530828
  55.6076994 110.2631474  34.4926998  54.8322124 112.2122745  27.2113505
  54.3927114 111.7199123  27.9046361  55.5830241 111.6695712  26.9705580
  47.3114463 108.4034286  27.2138133  48.1372483 108.1038058  26.8336776
  46.9608515 107.6341908  27.6627921  52.2795996 107.7560754  29.2835806
  51.6576006 107.0931459  28.9838034  52.9500863 107.7821886  28.6009454
  45.5123068 106.3220612  28.1727066  44.6754976 105.8942786  27.9911068
  45.4846714 106.5153055  29.1097858  52.3520524  96.2342542  38.8768312
  52.4008679  97.1104665  38.4946082  52.8943038  95.6919935  38.3039956
  62.8375369 106.7783665  38.1569450  62.0470913 106.7607804  37.6173949
  62.6008724 107.3171959  38.9118486  62.9573244 103.6276132  35.4702178
  63.0071249 103.4626139  36.4117701  62.8487168 102.7603391  35.0800059
  51.8409503 106.3064677  22.7594267  51.9897624 106.9900142  22.1060940
  52.6475947 106.2869767  23.2743723  60.2477007  99.6107060  36.7861485
  61.1486870  99.4713524  36.4945483  60.3224981  99.7761514  37.7259662
  54.5819812  96.9873914  35.6314671  53.7123122  97.2807480  35.3597260
  54.8179293  97.5714359  36.3521935  64.4591441 106.0473073  35.7144200
  64.1676250 106.4103054  36.5507661  63.8463573 105.3340081  35.5357532
  65.6587124 103.6125953  28.2346770  66.4934015 104.0515757  28.3984330
  65.7946252 103.1364606  27.4155016  62.7078630 101.1705688  34.1824258
  63.1832751 101.3633334  33.3743109  61.7844195 101.2264873  33.9367641
  49.5962136 102.3329855  23.7655336  49.3508178 101.4292185  23.9635546
  49.7658051 102.3347005  22.8234814  48.8657784  98.0658212  21.2641497
  48.1727029  98.1402567  20.6081533  48.6209536  97.3018556  21.7863014
  55.3404909 108.8012808  20.2306014  54.7678876 109.4202995  19.7776486
  55.9137702 109.3512169  20.7645936  61.4080299  98.0471448  32.4152563
  62.3597721  98.1469545  32.4364787  61.2383749  97.2549716  32.9250648
  59.4294678  95.1327031  32.6011964  58.8344610  95.4132044  31.9058453
  59.1444375  95.6220932  33.3728705  58.5602168 109.0849958  21.3614597
  59.4932842 109.0195519  21.5647472  58.4725381 109.9206225  20.9029129
  63.8868376 101.2677567  31.5294863  63.8544696 100.3293568  31.7154547
  64.4969000 101.3461604  30.7960688  55.7251707 100.1373620  17.5722067
  56.6710812 100.0079829  17.6410485  55.3465952  99.3988282  18.0491495
  64.0362865  98.0588611  31.5753146  63.5201913  97.2747068  31.3883075
  64.9202813  97.7307327  31.7399665  61.6973592  91.8029626  27.5348959
  61.4998413  91.4944715  28.4192291  62.3073297  92.5291265  27.6646889
  69.7044926 102.3293574  30.6700900  70.4348315 102.0678862  31.2308603
  69.0951872 101.5922296  30.7102968  67.7860223 100.4701437  31.2675351
  67.0593387 100.3357402  30.6591842  67.3707510 100.7778265  32.0732069
  55.6090400 104.1891367  39.0322724  56.5293409 104.3669966  39.2262770
  55.5739983 103.2447412  38.8802423  53.9094624  98.0623597  17.5076952
  53.0026080  97.7656710  17.5839666  54.1870605  97.7653415  16.6411238
  44.8272565  99.3829960  27.9575999  44.5075349  98.5295268  27.6650373
  44.2805993  99.5978538  28.7133966  48.6052472 102.0992401  31.6745505
  48.8238482 103.0309509  31.6933539  49.0178246 101.7400376  32.4600309
  55.5256690  92.6060487  23.6621193  54.7157418  92.2607571  24.0376439
  56.2141107  92.2968030  24.2508805  57.4547238  91.6838533  25.2845490
  58.0078277  92.1033987  25.9435513  57.6917325  90.7574281  25.3268446
  53.4780338  97.6725607  41.0648254  53.3777064  98.6219964  40.9960345
  53.2601880  97.3443846  40.1924324  52.6793409  94.9210532  17.6488931
  53.5412573  95.2465430  17.9084749  52.8643753  94.1342028  17.1361997
  44.6960825 103.0032872  29.9269120  44.0024296 102.5886824  29.4139074
  45.4433816 103.0453408  29.3302539  60.8326045  93.7939058  24.7924154
  60.2524714  94.4523863  24.4102207  60.5661978  92.9716403  24.3811572
  59.2829612  93.1944116  26.9945475  59.7829390  93.3060651  26.1859793
  59.9265220  92.8905169  27.6346283  53.3411608 101.1022746  39.8813316
  52.8578689 101.9023106  40.0877205  53.4272547 101.1130691  38.9280760
  46.6097567 102.9351125  27.8035135  46.5868255 103.0338813  26.8517018
  46.9198204 103.7816276  28.1252301  49.2684945 104.9927281  31.9181749
  50.2228199 104.9611223  31.8511681  49.0697469 104.5317904  32.7331975
  49.8584327 103.5628397  34.4852547  50.6777216 104.0572475  34.5087384
  50.1321135 102.6460365  34.4570115  59.6150923  95.9539149  23.8480503
  58.7276778  96.2388799  23.6300697  60.0304913  95.7932912  23.0007779
  62.9665460  95.9785670  27.5634842  63.7425850  96.4682122  27.8359459
  62.2413594  96.4043724  28.0206711  65.4038018  96.6913289  28.6208782
  65.9982509  96.4509025  27.9102091  65.4764602  95.9720420  29.2482319
  59.5891947 101.4693685  24.0630793  59.5327149 101.9262236  23.2238425
  60.1420290 100.7084369  23.8853635  63.3996753  97.2583417  24.8880912
  63.1433687  96.8580052  25.7189120  62.7749621  97.9727211  24.7631051
  67.7109091  99.9979490  27.3952204  67.1508649 100.0672679  28.1683766
  67.1052594  99.8220475  26.6751700  60.6680834 106.1566353  19.9926983
  61.5026438 105.7247551  19.8104457  60.5065177 105.9848366  20.9203877
  60.3226727 102.6598466  21.3583322  60.2675530 102.4942737  20.4171766
  59.6972782 103.3674499  21.5145512  45.1119242  97.8966530  35.1844744
  45.7578105  97.3865484  35.6731969  44.9036393  98.6335212  35.7588169
  57.6372634 104.9647378  40.6836885  58.5063793 105.1388030  40.3223520
  57.1579385 105.7841795  40.5612614  53.6322852  92.1606575  20.9368640
  53.6201522  93.1048415  21.0936911  54.5246274  91.9776720  20.6428101
  51.8058814 112.0844479  32.3626318  52.7086061 112.1168089  32.6792813
  51.5796184 111.1544930  32.3772654  53.5612416 110.8375465  29.0236397
  52.6108047 110.8377327  28.9100769  53.8644902 110.0908200  28.5072432
  69.2965109 116.6736004  30.0882159  69.9343519 116.5542751  29.3845499
  69.1785952 117.6216848  30.1470111  66.1054816 116.6263432  30.0243684
  65.7673327 116.5104497  29.1364219  66.9744584 116.2254597  30.0044690
  71.7740225 108.0484265  32.5262954  71.4423550 108.9179676  32.3024169
  71.1785839 107.7320549  33.2056985  71.6668889 112.7679351  29.6056305
  70.7585766 112.6994760  29.3115066  71.6156485 113.2451296  30.4338130
  65.7409754 114.1868997  37.5491202  64.9643089 114.7462917  37.5394066
  66.3800318 114.6725780  38.0706072  73.5330535 110.9695790  31.3834178
  72.8904915 111.2628323  30.7373973  73.0285464 110.8548710  32.1887375
  65.8242536 114.0756197  33.0814887  66.6703732 114.4995611  33.2249536
  65.7641174 113.4189822  33.7753450  68.9741982 111.7360566  34.7396061
  68.7302914 112.4902626  34.2030337  69.2501912 112.1145913  35.5743308
  70.9280445 118.2799178  33.4173326  71.1397340 118.9230938  32.7407708
  70.8810193 117.4461495  32.9495257  68.5306674 110.8916999  30.3209899
  67.6691153 111.1898252  30.6126636  68.5569108 111.1087398  29.3890931
  62.7317491 114.1494098  37.9124479  62.1016151 114.8310379  38.1459876
  62.6253578 114.0377180  36.9677617  58.0262463 113.8165894  28.8390403
  57.2361517 114.0723423  28.3630514  58.5173710 114.6314232  28.9442444
  59.9777208 114.1810474  25.7973880  59.1808372 114.2929168  26.3157375
  59.7502801 114.5197126  24.9314770  62.0098233 108.4514864  40.2749730
  61.6165179 107.8981063  40.9497374  62.8264374 108.7625443  40.6656247
  64.9266194 109.8672743  37.8669986  65.6675908 110.4679896  37.7874449
  65.1584117 109.1250381  37.3088029  68.8723357 105.8953846  32.1434268
  68.5287627 106.7855488  32.0673379  69.2402320 105.7055504  31.2803853
  66.4220751 110.7312158  25.7091942  65.5662347 110.3419008  25.5297580
  66.8347703 110.8104119  24.8491727  67.9519898 108.2658501  30.1083501
  67.4484693 108.2288636  29.2951307  68.2450504 109.1751244  30.1680158
  64.1962783 108.3497231  29.1149683  65.0615780 108.1540040  28.7555573
  64.2640292 108.1207583  30.0419040  61.8025103 110.5799439  26.4866050
  62.3768854 110.3574620  25.7539243  62.3896085 110.6488133  27.2394651
  64.1047770 107.4540688  25.2141119  63.4512183 107.1389705  24.5897734
  64.0628244 106.8316428  25.9400942  67.3385511 113.9422621  29.5388767
  66.4208072 114.1637568  29.3810455  67.7545654 114.0168932  28.6800474
  70.6711023 105.1547405  27.2452006  70.9769900 104.2944769  26.9577921
  71.3963628 105.7465026  27.0451000  64.9432103 115.4501198  27.7528197
  64.9980712 114.4975035  27.6770673  64.1323305 115.6060638  28.2369495
  62.8824463 114.0678258  25.5118576  62.0692328 114.3672429  25.9183768
  63.3783457 113.6733947  26.2293058  68.4798674 114.5320083  34.3433470
  68.8348062 114.7591556  35.2027935  69.1270805 114.8638459  33.7210725
  62.3738537 111.6396614  31.1279811  63.0137917 111.4985373  30.4302774
  61.5416068 111.3531127  30.7518413  59.3767154 111.6096939  25.9052797
  59.6373971 112.5242272  25.7961958  60.1984326 111.1421381  26.0549410
  60.8492079 113.0234696  33.0751622  61.5215132 112.8152058  32.4264271
  60.0221866 112.8256782  32.6356854  66.7517651 109.6496637  35.0917283
  66.1045566 110.3486586  34.9981759  67.5218666 110.0832781  35.4593531
  66.9281785 117.4877402  33.1514103  67.8573845 117.6388561  32.9783070
  66.5072815 117.5761422  32.2962749  63.8801877 116.0097258  33.3237739
  64.5901495 115.3690450  33.2824357  63.8371185 116.2610153  34.2463920
  62.5930811 112.9962476  35.1433378  62.0568168 112.5453214  35.7954975
  62.0047519 113.1308385  34.4003843  58.3269932 112.1318484  32.2286373
  58.2428121 111.5244153  31.4936783  57.5052639 112.6227502  32.2295869
  68.4993646 110.6172047  27.5956568  68.9962346 109.8642010  27.2757638
  67.7280628 110.6536364  27.0299777  65.0828615 112.7589430  27.3228252
  64.7126402 112.2060471  28.0109158  65.5787707 112.1547564  26.7703252
  70.9412641 107.5841641  29.7435927  70.0275721 107.8145868  29.9118134
  71.3705742 107.6680085  30.5949959  70.7119099 115.7731533  32.2435821
  70.0590550 116.0207440  31.5888274  71.0899479 114.9595671  31.9098298
  66.7606672 116.5151344  38.7301858  66.0847309 116.4145473  39.4004233
  67.5834306 116.3590558  39.1937855  60.4793948 110.1693421  33.5681359
  60.5435275 111.0308252  33.1558756  60.4161069 109.5567423  32.8353717
  59.9546221 112.2416554  37.2154393  60.5818260 111.8593631  37.8291917
  59.0974140 112.0230756  37.5810085  60.2606011 112.1248979  29.1300296
  59.5392596 112.7384947  28.9907770  61.0499267 112.6606744  29.0516942
  63.0632324 109.4603406  35.4040948  63.5866726 109.7065702  36.1667257
  62.8444658 110.2923441  34.9844085  58.4599605 111.7307080  23.2712073
  58.1312311 110.8504459  23.0887179  58.8138976 111.6754749  24.1588462
  64.2684869 110.4017101  33.0890619  63.9281690 109.6024914  33.4911298
  63.5623876 110.7018812  32.5167452  64.9201341 107.4866413  31.5417942
  65.7427410 107.0126891  31.4196832  65.1639405 108.2656897  32.0416628
  62.4439920 114.1785534  29.3509920  62.2984501 114.4925837  30.2434202
  61.9665124 114.7970434  28.7980819  64.3036303 111.1688082  29.3990810
  64.2897872 110.2729175  29.0623108  65.0208731 111.1758746  30.0329096
  66.1562433 111.6025422  31.4443937  65.8980211 112.5242493  31.4428268
  65.6247474 111.2055857  32.1344401  63.7073199 110.0502462  24.6678380
  63.8289110 109.1219108  24.8669267  63.4175241 110.0641148  23.7556695
  66.5764389 107.7357373  27.8045100  66.5986086 107.7996706  26.8497079
  66.9932448 106.8961881  27.9985606  63.1914278 111.5634460  38.8768312
  63.2402434 112.4396582  38.4946082  63.7336792 111.0211853  38.3039956
  73.7966999 118.9568049  35.4702178  73.8465004 118.7918057  36.4117701
  73.6880922 118.0895308  35.0800059  71.0870761 114.9398977  36.7861485
  71.9880624 114.8005442  36.4945483  71.1618736 115.1053432  37.7259662
  65.4213567 112.3165832  35.6314671  64.5516876 112.6099398  35.3597260
  65.6573047 112.9006277  36.3521935  73.5472384 116.4997605  34.1824258
  74.0226506 116.6925252  33.3743109  72.6237949 116.5556791  33.9367641
  68.1252601 108.5345449  33.1480091  68.6434544 109.2706476  32.8226580
  67.7707733 108.8409442  33.9826851  68.3765195 104.9545731  28.6680988
  68.6566948 104.2868920  29.2941415  69.1615802 105.1474827  28.1555652
  72.2474053 113.3763365  32.4152563  73.1991476 113.4761463  32.4364787
  72.0777503 112.5841634  32.9250648  70.2688433 110.4618949  32.6011964
  69.6738365 110.7423961  31.9058453  69.9838129 110.9512850  33.3728705
  74.8756619 113.3880529  31.5753146  74.3595668 112.6038985  31.3883075
  75.7596568 113.0599245  31.7399665  72.5367346 107.1321544  27.5348959
  72.3392167 106.8236632  28.4192291  73.1467052 107.8583183  27.6646889
  66.3650445 107.9352404  23.6621193  65.5551173 107.5899489  24.0376439
  67.0534861 107.6259948  24.2508805  68.2940993 107.0130451  25.2845490
  68.8472031 107.4325904  25.9435513  68.5311079 106.0866199  25.3268446
  64.3174092 113.0017525  41.0648254  64.2170819 113.9511882  40.9960345
  64.0995634 112.6735764  40.1924324  70.1223366 108.5236034  26.9945475
  70.6223145 108.6352568  26.1859793  70.7658974 108.2197087  27.6346283
  68.2868726 104.0841269  25.1914577  67.5201122 103.5299756  25.3371259
  68.6979431 104.1563138  26.0528729  60.2910487 110.3726065  39.2819758
  61.1541949 110.0162870  39.4923083  59.7175898 110.0339960  39.9695163
  16.1571558  23.0082063  25.5453435  16.7011462  23.6212021  25.0508390
  15.5758403  23.5661641  26.0620448  19.4800353  22.4678117  24.8814756
  18.6895896  22.4502256  24.3419256  19.2433707  23.0066411  25.6363793
  21.1016425  21.7367525  22.4389506  20.8101233  22.0997505  23.2752967
  20.4888556  21.0234533  22.2602838  14.2797617  20.6541830  27.4082191
  15.1488777  20.8282482  27.0468826  13.8004368  21.4736247  27.2857921
  25.9390093  32.3630456  16.8127466  26.5768503  32.2437203  16.1090806
  25.8210936  33.3111300  16.8715418  22.7479799  32.3157884  16.7488991
  22.4098311  32.1998949  15.8609526  23.6169567  31.9149049  16.7289997
  23.2299582  33.4692736  22.7075196  23.2188223  33.0745534  21.8355700
  23.3920221  32.7358808  23.3008968  19.9506843  36.2529847  21.6554380
  19.6596709  37.1575478  21.5401047  20.5863827  36.2946375  22.3698450
  20.8763050  33.6306696  18.2455740  21.4726622  33.4062718  17.5312703
  20.9338022  32.8891441  18.8481188  30.8939788  30.0257143  14.7913653
  31.6264960  29.4556360  15.0251482  30.1379144  29.6378743  15.2320158
  28.4165209  23.7378717  19.2508261  28.0848533  24.6074128  19.0269476
  27.8210822  23.4215001  19.9302292  24.9096728  35.9391263  18.6504174
  24.6097451  36.8416302  18.5419981  24.5647788  35.6723446  19.5025327
  28.3093872  28.4573803  16.3301611  27.4010749  28.3889212  16.0360372
  28.2581468  28.9345748  17.1583437  19.8917508  42.7035583  11.6175142
  19.8141538  43.6543408  11.6963622  19.2879152  42.3581456  12.2750068
  22.3834738  29.8763449  24.2736508  21.6068072  30.4357369  24.2639373
  23.0225301  30.3620232  24.7951379  30.1755518  26.6590241  18.1079485
  29.5329899  26.9522775  17.4619280  29.6710447  26.5443162  18.9132682
  20.6381110  32.6848902  23.8354475  21.3795794  33.2233946  23.5589299
  19.9318096  33.3115191  23.9926027  26.1136450  34.8278042  22.4326637
  26.5219806  34.3860453  21.6881269  25.3913711  34.2530670  22.6860830
  22.4667520  29.7650649  19.8060194  23.3128715  30.1890063  19.9494843
  22.4066157  29.1084274  20.4998757  26.4365264  35.3879233  16.1878926
  25.8074127  35.5524947  15.4854994  26.0490926  35.8020843  16.9589890
  30.3154496  36.3233671  13.5423290  29.6305534  36.7032572  12.9920323
  30.3998346  36.9328998  14.2755237  25.6166965  27.4255018  21.4641368
  25.3727897  28.1797078  20.9275643  25.8926896  27.8040365  22.2988615
  27.5705428  33.9693630  20.1418633  27.7822323  34.6125390  19.4653014
  27.5235176  33.1355947  19.6740563  18.8817307  34.6725123  16.3908774
  19.4518664  35.1012391  15.7526259  19.4725419  34.3907707  17.0892960
  19.3742474  29.8388550  24.6369785  18.7441134  30.5204831  24.8705182
  19.2678562  29.7271632  23.6922924  28.6851256  36.8465585  18.3140990
  29.5068700  36.4445773  18.0323672  28.6813659  36.7433820  19.2657106
  22.4507859  36.3949629  20.4701701  22.5152292  36.8570036  21.3059873
  21.7418783  35.7646994  20.5984011  36.7757249  33.1904334  14.6625962
  36.0220957  32.6211732  14.5069966  36.9104790  33.1566998  15.6096597
  18.6523217  24.1409316  26.9995037  18.2590162  23.5875515  27.6742681
  19.4689357  24.4519895  27.3901554  21.5691178  25.5567195  24.5915293
  22.3100891  26.1574348  24.5119756  21.8009100  24.8144833  24.0333336
  16.7132516  30.7423562  22.8693523  16.5986031  29.8408820  23.1700622
  15.8577033  30.9887259  22.5178339  23.7924353  38.6841303  24.4681023
  23.3488208  37.8977681  24.1501928  24.4541567  38.8720453  23.8024914
  18.5511474  40.2137104  18.9941702  19.1018900  40.0854168  18.2218696
  17.7122950  40.5131993  18.6436595  25.8905591  38.9644103  22.4962425
  25.8724067  39.7852984  22.0042694  26.8125511  38.8398178  22.7212566
  22.3478646  36.4788232  23.3385933  22.8806982  35.7176520  23.1085241
  21.8192727  36.1861884  24.0810087  28.6924204  33.8023245  15.9671791
  28.0347879  34.4922506  16.0551920  29.4964603  34.1919677  16.3105778
  27.5029663  32.1567618  14.0175733  28.0161545  32.7897610  14.5197443
  28.1530887  31.5568813  13.6519093  28.2691459  37.1373619  12.1454876
  27.8153786  36.2964529  12.2020066  27.6385426  37.7735018  12.4829656
  26.7124399  38.9750116  13.0804694  27.0047373  39.5355173  12.3617059
  27.2223019  39.2678677  13.8357853  21.6758024  39.7530467  14.1698147
  21.6334203  39.9791313  13.2406679  22.5920723  39.5193842  14.3183948
  25.1223658  30.2214535  21.0678776  25.4773045  30.4486008  21.9273242
  25.7695789  30.5532911  20.4456032  30.8521394  33.3432970  11.7728105
  30.7139293  33.5334566  10.8449295  30.4957613  34.1052353  12.2296156
  30.8790774  35.4109497  16.7839377  31.3127281  35.3184787  17.6322431
  31.5922355  35.3866998  16.1459393  24.6118669  39.0111592  18.3172477
  24.6655691  39.5802528  19.0850193  23.7433450  39.1813477  17.9526515
  17.4917062  28.7129148  19.7996929  18.1640116  28.5046510  19.1509578
  16.6646849  28.5151234  19.3602161  31.7406324  35.4533198  19.3172262
  31.9342214  36.3579009  19.5631537  31.6406942  34.9940617  20.1510847
  23.3942634  25.3391089  21.8162590  22.7470549  26.0381038  21.7227066
  24.1643650  25.7727233  22.1838838  26.8021432  35.6039941  24.8913143
  26.6506939  35.3750493  23.9743227  26.7926112  36.5610542  24.9044488
  23.5706769  33.1771854  19.8759409  24.4998829  33.3283013  19.7028377
  23.1497799  33.2655874  19.0208056  22.3695100  37.2022518  17.6457947
  22.2306186  36.8341302  18.5183885  21.5809697  37.7170157  17.4741905
  22.9643252  42.3031614   8.9883483  23.1395008  41.8319658   9.8029106
  22.2776040  42.9297381   9.2164744  23.9200316  36.5804121  15.0346785
  23.5850148  36.5404891  15.9304435  23.4204261  35.9148837  14.5617195
  17.8944560  31.9871751  20.5599366  17.7564358  31.2551990  21.1610905
  18.8049483  31.8980651  20.2783554  20.5226860  31.6991710  20.0483045
  21.2326479  31.0584902  20.0069664  20.4796168  31.9504605  20.9709226
  28.5113639  38.6359063  22.9689625  28.4526185  37.9518284  22.3020208
  28.9133157  39.3778053  22.5170251  19.2355794  28.6856928  21.8678685
  18.6993151  28.2347666  22.5200281  18.6472503  28.8202837  21.1249149
  17.5304338  45.4520977  15.7623344  17.7700936  46.0839501  16.4402362
  16.6873534  45.1009017  16.0488703  28.5131046  36.5998647  21.2003604
  27.6257825  36.2624569  21.3230003  29.0829597  35.8681679  21.4372370
  22.0432200  41.2600100  18.1664848  21.9702371  42.0655071  18.6784152
  21.6009593  41.4592065  17.3412869  21.8321979  40.4971870  11.6767669
  21.0489501  41.0393550  11.7705894  22.5314724  41.0145849  12.0761910
  32.9948387  32.0106865  15.9620166  32.9838263  32.8931580  15.5914099
  32.1265766  31.6578416  15.7674703  24.5030883  41.1586934  20.3223006
  25.2158855  41.7934399  20.2498908  24.0120912  41.2550800  19.5063008
  19.5542797  38.9081377  21.1428577  20.2552256  39.5417860  21.2957971
  19.0837912  39.2496109  20.3824216  27.3544083  31.4625985  18.9681127
  26.7015533  31.7101892  18.3133580  27.7324463  30.6490123  18.6343605
  24.3151257  41.4985678  13.0709298  24.4973651  40.6807334  13.5337050
  25.1384243  41.7153370  12.6334188  24.6493422  40.4253863  10.3324346
  25.1781188  39.9146318   9.7194508  24.9121642  40.1096393  11.1969879
  23.4031656  32.2045796  25.4547164  22.7272293  32.1039925  26.1249540
  24.2259290  32.0485009  25.9183162  15.1510515  38.4417732  18.0759680
  15.7363952  37.6961420  18.2087584  14.9535353  38.7521689  18.9596344
  18.0049170  41.4768980  13.0922122  17.3359545  41.9615107  12.6086162
  17.8662040  41.7238200  14.0065501  22.1454439  43.5112723  19.6904780
  22.6972747  43.6744345  20.4553866  22.4860632  44.1017161  19.0184805
  16.5971204  27.9311005  23.9399699  17.2243243  27.5488083  24.5537224
  15.7399123  27.7125207  24.3055392  26.9965313  38.3373981  25.5453435
  27.5405217  38.9503939  25.0508390  26.4152158  38.8953559  26.0620448
  25.2822826  41.4594699  16.6768463  25.1573965  40.6584438  16.1679408
  25.9401917  41.9540892  16.1882433  27.3457734  39.2603719  18.3048013
  26.3988070  39.1409070  18.2326339  27.6940507  38.3726217  18.3874274
  19.7057308  25.1497858  22.1286255  20.2291709  25.3960154  22.8912564
  19.4869641  25.9817892  21.7089392  24.3504167  39.0556435  14.5052365
  24.2029130  38.1273142  14.6859935  25.1757661  39.0776526  14.0209440
  27.9538289  39.8784994  15.5917238  28.8784837  39.6727855  15.4541689
  27.7853593  39.6301395  16.5006579  20.9109853  26.0911553  19.8135925
  20.5706673  25.2919366  20.2156605  20.2048859  26.3913264  19.2412758
  22.7987417  27.2919874  18.1689244  22.5405195  28.2136945  18.1673574
  22.2672457  26.8950309  18.8589708  27.7433606  40.3970661  10.9479329
  27.9170483  39.8317084  10.1953182  28.2362497  41.1971556  10.7658819
  13.5610565  32.4085330  19.0142888  13.0164033  33.1845138  19.1463162
  14.4389915  32.7556135  18.8562009  33.5972997  33.1607084  12.5669629
  34.0404143  32.4114409  12.1688752  32.7199507  33.1517220  12.1843361
  28.7308778  39.7137426   8.0476227  29.4259683  40.3344118   8.2663542
  29.0731928  38.8632777   8.3228605  14.3476587  31.5355226  21.9073045
  13.6058323  31.6837862  22.4937675  14.0269331  31.7963492  21.0439794
  30.6300201  37.1637131   9.5763558  31.1551525  37.5024404   8.8512878
  30.5422554  36.2284146   9.3926693  22.2920250  41.0771205  21.7053435
  22.6007376  40.8320351  22.5776134  23.0895732  41.2817843  21.2172305
  22.3140862  43.2309114  13.9358811  21.8745852  42.7385493  14.6291668
  23.0648979  42.6882082  13.6950887  19.7614734  38.7747123  16.0081113
  19.1394743  38.1117828  15.7083341  20.4319601  38.8008255  15.3254761
  19.8339262  27.2528911  25.6013619  19.8827417  28.1291034  25.2191389
  20.3761776  26.7106305  25.0285262  30.3194107  37.7970035  24.8814756
  29.5289651  37.7794174  24.3419256  30.0827462  38.3358328  25.6363793
  30.4391982  34.6462501  22.1947485  30.4889987  34.4812509  23.1363007
  30.3305906  33.7789760  21.8045365  27.7295745  30.6293429  23.5106791
  28.6305607  30.4899894  23.2190789  27.8043719  30.7947884  24.4504969
  22.0638550  28.0060284  22.3559978  21.1941859  28.2993850  22.0842566
  22.2998030  28.5900729  23.0767241  31.9410179  37.0659443  22.4389506
  31.6494987  37.4289423  23.2752967  31.3282310  36.3526451  22.2602838
  33.1405861  34.6312322  14.9592076  33.9752753  35.0702126  15.1229637
  33.2764990  34.1550976  14.1400322  30.1897367  32.1892057  20.9069564
  30.6651489  32.3819704  20.0988416  29.2662933  32.2451243  20.6612948
  24.7677584  24.2239901  19.8725398  25.2859528  24.9600928  19.5471887
  24.4132717  24.5303894  20.7072157  28.8899036  29.0657817  19.1397870
  29.8416459  29.1655915  19.1610094  28.7202487  28.2736086  19.6495954
  26.9113416  26.1513401  19.3257271  26.3163348  26.4318413  18.6303759
  26.6263113  26.6407301  20.0974012  31.3687114  32.2863937  18.2540169
  31.3363434  31.3479938  18.4399853  31.9787738  32.3647974  17.5205994
  31.5181603  29.0774980  18.2998453  31.0020651  28.2933437  18.1128382
  32.4021551  28.7493697  18.4644972  37.1863664  33.3479944  17.3946206
  37.9167052  33.0865232  17.9553910  36.5770609  32.6108666  17.4348274
  35.2678961  31.4887806  17.9920657  34.5412125  31.3543771  17.3837149
  34.8526248  31.7964635  18.7977376  23.0909138  35.2077736  25.7568030
  24.0112147  35.3856335  25.9508077  23.0558721  34.2633781  25.6047730
  16.0871210  33.1178771  18.3990812  16.3057220  34.0495879  18.4178845
  16.4996984  32.7586745  19.1845615  20.9599075  28.6911977  27.7893561
  20.8595802  29.6406333  27.7205652  20.7420617  28.3630215  26.9169631
  20.8230345  32.1209115  26.6058622  20.3397427  32.9209475  26.8122511
  20.9091284  32.1317060  25.6526066  16.7503683  36.0113650  18.6427056
  17.7046936  35.9797592  18.5756988  16.5516207  35.5504274  19.4577282
  17.3403065  34.5814766  21.2097854  18.1595954  35.0758845  21.2332691
  17.6139873  33.6646734  21.1815421  32.8856756  27.7099659  15.3454089
  33.4801247  27.4695395  14.6347397  32.9583340  26.9906789  15.9727625
  15.1053912  41.5533270  15.6597254  14.9708380  40.7933670  15.0935252
  14.6885974  42.2774169  15.1926043  35.1927829  31.0165859  14.1197510
  34.6327387  31.0859049  14.8929072  34.5871332  30.8406844  13.3997007
  18.2623038  42.4502587  15.8715697  18.1455422  43.3948019  15.7694387
  17.4415484  42.1476148  16.2601496  12.5937979  28.9152900  21.9090051
  13.2396843  28.4051854  22.3977276  12.3855130  29.6521582  22.4833476
  25.1191371  35.9833747  27.4082191  25.9882531  36.1574400  27.0468826
  24.6398123  36.8028164  27.2857921  19.2877552  43.1030848  19.0871625
  20.1904798  43.1354459  19.4038120  19.0614922  42.1731299  19.1017961
  21.0431154  41.8561835  15.7481704  20.0926785  41.8563697  15.6346076
  21.3463640  41.1094570  15.2317738  16.9335470  26.0620517  26.0065065
  17.7966932  25.7057322  26.2168390  16.3600881  25.7234412  26.6940469
  36.7783847  47.6922373  16.8127466  37.4162257  47.5729121  16.1090806
  36.6604690  48.6403217  16.8715418  33.5873554  47.6449802  16.7488991
  33.2492065  47.5290866  15.8609526  34.4563322  47.2440967  16.7289997
  29.4460369  49.4985278  12.7385882  28.8825234  49.4075215  11.9702169
  29.3312764  48.6785182  13.2188374  34.0693336  48.7984653  22.7075196
  34.0581977  48.4037452  21.8355700  34.2313976  48.0650726  23.3008968
  26.9924801  50.9936470  15.5770102  27.7846093  50.6527294  15.1616401
  27.2321451  51.1031445  16.4972255  35.0259928  53.1656246   8.0500347
  34.3747908  53.7510326   7.6634360  35.8204291  53.6962441   8.1095384
  28.9515555  50.2545383   8.4487481  29.7246431  49.7074370   8.3100357
  29.3040954  51.1189632   8.6601942  30.7900598  51.5821765  21.6554380
  30.4990464  52.4867396  21.5401047  31.4257582  51.6238293  22.3698450
  31.7156804  48.9598614  18.2455740  32.3120377  48.7354636  17.5312703
  31.7731776  48.2183359  18.8481188  31.2881833  46.4138049   6.0805931
  31.5407354  45.8919570   5.3189394  30.3506392  46.2504194   6.1832614
  36.3325116  45.4173827  13.8880674  37.1188205  44.9993250  13.5371091
  36.5963820  46.3219919  14.0562322  36.5035193  50.8546678   8.5869331
  35.8681026  50.9281304   9.2990235  36.1732599  51.4440276   7.9088410
  41.7333543  45.3549060  14.7913653  42.4658715  44.7848277  15.0251482
  40.9772899  44.9670661  15.2320158  31.0078122  48.3166155   8.2830306
  30.8914380  47.6411058   8.9511390  31.1180382  47.8298529   7.4662459
  33.3509663  47.7776302  11.9876995  32.9867870  47.2506923  12.6989916
  34.2076778  47.3874771  11.8143480  39.2558963  39.0670635  19.2508261
  38.9242288  39.9366046  19.0269476  38.6604577  38.7506919  19.9302292
  32.9915150  42.8066202   6.9838344  33.1589552  43.6746438   7.3508815
  32.8012319  42.9693483   6.0599633  35.7490483  51.2683181  18.6504174
  35.4491206  52.1708219  18.5419981  35.4041542  51.0015364  19.5025327
  29.2002964  47.7196977  14.6840878  28.2753461  47.5873192  14.8918570
  29.4487377  48.4991197  15.1810821  39.1487627  43.7865721  16.3301611
  38.2404504  43.7181129  16.0360372  39.0975222  44.2637666  17.1583437
  32.9704370  45.2623859   7.9685010  32.8503996  45.7080910   8.8070491
  32.2756959  45.6109177   7.4098548  26.5611775  47.3630251  15.5184667
  26.6904156  47.6164730  16.4324079  25.8809227  47.9557959  15.1989322
  30.7311263  58.0327501  11.6175142  30.6535292  58.9835326  11.6963622
  30.1272906  57.6873373  12.2750068  33.2228492  45.2055366  24.2736508
  32.4461826  45.7649286  24.2639373  33.8619055  45.6912149  24.7951379
  41.0149273  41.9882159  18.1079485  40.3723653  42.2814692  17.4619280
  40.5104201  41.8735079  18.9132682  38.6689437  45.7345332   8.7965344
  39.5807293  45.9672719   8.6213042  38.1599084  46.3182377   8.2340423
  31.4774865  48.0140820  23.8354475  32.2189549  48.5525864  23.5589299
  30.7711850  48.6407108  23.9926027  36.9530204  50.1569960  22.4326637
  37.3613560  49.7152371  21.6881269  36.2307466  49.5822588  22.6860830
  33.3061274  45.0942567  19.8060194  34.1522469  45.5181980  19.9494843
  33.2459912  44.4376191  20.4998757  37.2759019  50.7171151  16.1878926
  36.6467881  50.8816865  15.4854994  36.8884681  51.1312760  16.9589890
  41.1548251  51.6525589  13.5423290  40.4699289  52.0324490  12.9920323
  41.2392100  52.2620915  14.2755237  36.4560720  42.7546935  21.4641368
  36.2121651  43.5088996  20.9275643  36.7320650  43.1332283  22.2988615
  38.4099182  49.2985548  20.1418633  38.6216078  49.9417308  19.4653014
  38.3628931  48.4647864  19.6740563  36.0125411  41.9103368  17.0455205
  35.1509890  42.2084622  17.3371943  36.0387846  42.1273767  16.1136238
  32.8286981  50.4545559  13.4529011  33.2925326  50.7333262  12.6633633
  32.5643779  49.5529003  13.2702102  29.7211062  50.0017040  16.3908774
  30.2912419  50.4304309  15.7526259  30.3119174  49.7199625  17.0892960
  31.7655867  46.5768711  10.2618576  32.4679910  47.0289755  10.7292502
  31.4336495  45.9352530  10.8898469  30.2136228  45.1680468  24.6369785
  29.5834889  45.8496749  24.8705182  30.1072316  45.0563549  23.6922924
  25.5081201  44.8352264  15.5635710  24.7180255  45.0909792  15.0875820
  25.9992448  45.6500602  15.6687750  39.5245010  52.1757503  18.3140990
  40.3462454  51.7737690  18.0323672  39.5207413  52.0725737  19.2657106
  27.4595946  45.1996843  12.5219186  26.6627109  45.3115537  13.0402682
  27.2321538  45.5383495  11.6560077  33.2901614  51.7241546  20.4701701
  33.3546046  52.1861954  21.3059873  32.5812538  51.0938911  20.5984011
  23.7918904  45.0882754  17.9950700  24.0426942  45.9729764  18.2608276
  24.3278452  44.9087356  17.2225792  47.6151003  48.5196252  14.6625962
  46.8614712  47.9503650  14.5069966  47.7498545  48.4858916  15.6096597
  33.0049631  53.3909654  10.3380681  32.8695306  54.2361190  10.7665529
  33.5459444  53.5928932   9.5746615  29.4916971  39.4701234  26.9995037
  29.0983917  38.9167432  27.6742681  30.3083111  39.7811812  27.3901554
  26.4579029  50.9085092  10.9108606  26.9703549  51.7028342  11.0614171
  27.1101742  50.2111382  10.8442208  28.2673914  54.0250848  12.9931360
  28.4440542  54.9468813  12.8052343  29.0630747  53.7109267  13.4225739
  32.4084932  40.8859113  24.5915293  33.1494645  41.4866266  24.5119756
  32.6402855  40.1436751  24.0333336  27.5526270  46.0715480  22.8693523
  27.4379785  45.1700737  23.1700622  26.6970788  46.3179177  22.5178339
  34.6318108  54.0133220  24.4681023  34.1881962  53.2269599  24.1501928
  35.2935321  54.2012371  23.8024914  29.3905229  55.5429022  18.9941702
  29.9412654  55.4146085  18.2218696  28.5516705  55.8423911  18.6436595
  36.7299346  54.2936020  22.4962425  36.7117821  55.1144901  22.0042694
  37.6519266  54.1690096  22.7212566  33.1872400  51.8080150  23.3385933
  33.7200737  51.0468438  23.1085241  32.6586481  51.5153802  24.0810087
  36.3542095  36.9140216  18.8679575  36.0106364  37.8041857  18.7918685
  36.7221058  36.7241873  18.0049160  24.4227946  49.2373746  11.6868177
  25.2603168  49.6470755  11.4701885  24.6006213  48.2973188  11.6568371
  36.3192378  46.9048827   7.3752010  35.8039001  47.6753431   7.6140397
  36.0469686  46.2313963   7.9985071  33.9039489  41.7498528  12.4337248
  33.0481085  41.3605378  12.2542887  34.3166441  41.8290488  11.5737034
  35.4338635  39.2844871  16.8328808  34.9303431  39.2475006  16.0196613
  35.7269242  40.1937614  16.8925465  31.6781521  39.3683601  15.8394990
  32.5434518  39.1726409  15.4800879  31.7459030  39.1393952  16.7664347
  41.2926652  49.6581182   9.3105183  40.5156095  49.3192341   8.8660345
  41.9718133  49.6633805   8.6360148  36.1078681  44.7775919   9.2011791
  35.8028816  45.0922068  10.0521934  37.0609123  44.8557339   9.2439124
  34.5525113  50.9366142  10.8504745  34.0246474  50.2018902  10.5377982
  34.0512615  51.7140819  10.6044713  39.5317959  49.1315163  15.9671791
  38.8741633  49.8214424  16.0551920  40.3358358  49.5211595  16.3105778
  29.2843840  41.5985809  13.2111357  29.8587592  41.3760990  12.4784550
  29.8714823  41.6674503  13.9639958  38.3423418  47.4859535  14.0175733
  38.8555299  48.1189527  14.5197443  38.9924641  46.8860731  13.6519093
  29.6113427  43.6290270   7.2307242  28.7750740  43.9664956   7.5516517
  29.4718197  43.4939249   6.2934379  31.5866508  38.4727057  11.9386426
  30.9330920  38.1576075  11.3143041  31.5446982  37.8502798  12.6646249
  32.6977713  48.7546353   3.8539718  31.7904775  48.5235606   4.0530867
  33.1948745  47.9583972   4.0413700  35.6045792  57.4643860   6.7736404
  34.9307491  57.7675556   7.3821362  35.9911614  58.2672940   6.4241861
  34.8204248  44.9608991  16.2634074  33.9026810  45.1823938  16.1055762
  35.2364392  45.0355301  15.4045781  35.6039296  46.3600407  11.3936754
  36.3511115  46.8721804  11.0843876  35.8730886  46.0384459  12.2541147
  33.8765946  48.8558947   8.3763708  32.9677166  48.5717980   8.4736178
  33.9061030  49.2758026   7.5167015  39.1085214  52.4665537  12.1454876
  38.6547541  51.6256447  12.2020066  38.4779180  53.1026935  12.4829656
  38.0518133  43.3957523  13.3755543  37.3140890  42.8834909  13.7065786
  38.3044907  42.9557905  12.5638820  37.5518153  54.3042034  13.0804694
  37.8441127  54.8647091  12.3617059  38.0616774  54.5970595  13.8357853
  38.1529761  36.1733775  13.9697312  38.4588637  35.3131138  13.6823228
  38.8782365  36.7651395  13.7696306  24.4454117  46.5764462  12.3578910
  24.2478517  45.9833822  11.6329977  23.8900781  46.2716672  13.0754849
  32.4250840  46.4687568  14.4773504  32.4799450  45.5161404  14.4015980
  31.6142042  46.6247007  14.9614802  33.5742034  50.3967691   5.7151787
  33.1361464  49.6803550   5.2557424  34.3152475  50.6243806   5.1536878
  30.3643200  45.0864628  12.2363882  29.5511066  45.3858798  12.6429075
  30.8602195  44.6920317  12.9538365  32.5151778  55.0822385  14.1698147
  32.4727957  55.3083231  13.2406679  33.4314477  54.8485759  14.3183948
  35.9617412  45.5506452  21.0678776  36.3166800  45.7777925  21.9273242
  36.6089543  45.8824829  20.4456032  41.6915149  48.6724888  11.7728105
  41.5533048  48.8626484  10.8449295  41.3351368  49.4344271  12.2296156
  29.8557275  42.6582983  17.8525117  30.4956654  42.5171742  17.1548081
  29.0234806  42.3717497  17.4763719  41.7184529  50.7401415  16.7839377
  42.1521035  50.6476704  17.6322431  42.4316109  50.7158916  16.1459393
  30.6317579  51.9585414  13.9660110  31.4258177  51.4635734  13.7642685
  29.9209271  51.4303277  13.6027815  35.4512423  54.3403509  18.3172477
  35.5049446  54.9094446  19.0850193  34.5827205  54.5105394  17.9526515
  26.9400342  46.1028495  10.0419862  26.0097931  46.0412951  10.2589825
  27.0357814  45.5804448   9.2456504  26.8585891  42.6283308  12.6298104
  27.1192709  43.5428642  12.5207265  27.6803064  42.1607751  12.7794717
  28.3310817  44.0421065  19.7996929  29.0033870  43.8338428  19.1509578
  27.5040603  43.8443151  19.3602161  42.5800078  50.7825116  19.3172262
  42.7735968  51.6870926  19.5631537  42.4800696  50.3232535  20.1510847
  34.2336389  40.6683006  21.8162590  33.5864304  41.3672956  21.7227066
  35.0037404  41.1019150  22.1838838  37.6415187  50.9331859  24.8913143
  37.4900693  50.7042410  23.9743227  37.6319866  51.8902460  24.9044488
  34.4100523  48.5063771  19.8759409  35.3392583  48.6574931  19.7028377
  33.9891553  48.5947792  19.0208056  33.2088855  52.5314436  17.6457947
  33.0699941  52.1633220  18.5183885  32.4203451  53.0462075  17.4741905
  33.8037007  57.6323532   8.9883483  33.9788763  57.1611575   9.8029106
  33.1169795  58.2589298   9.2164744  34.7594070  51.9096038  15.0346785
  34.4243903  51.8696808  15.9304435  34.2598016  51.2440754  14.5617195
  28.7338314  47.3163668  20.5599366  28.5958112  46.5843907  21.1610905
  29.6443238  47.2272569  20.2783554  37.6953262  49.2552073   5.3083844
  37.0782432  48.5298901   5.2116897  37.2269750  50.0161433   4.9650919
  31.3620615  47.0283628  20.0483045  32.0720233  46.3876820  20.0069664
  31.3189923  47.2796523  20.9709226  39.3507393  53.9650981  22.9689625
  39.2919940  53.2810201  22.3020208  39.7526912  54.7069971  22.5170251
  30.0749549  44.0148846  21.8678685  29.5386906  43.5639584  22.5200281
  29.4866257  44.1494754  21.1249149  28.3698092  60.7812895  15.7623344
  28.6094690  61.4131419  16.4402362  27.5267289  60.4300935  16.0488703
  39.3524801  51.9290565  21.2003604  38.4651579  51.5916487  21.3230003
  39.9223352  51.1973596  21.4372370  21.0053948  48.2614657  14.5246656
  21.6924988  47.9476387  13.9367671  20.8502077  49.1656021  14.2513907
  25.8088670  43.1504853  18.9531679  25.7246859  42.5430523  18.2182089
  24.9871376  43.6413872  18.9541176  32.8825954  56.5892017  18.1664848
  32.8096126  57.3946989  18.6784152  32.4403347  56.7883983  17.3412869
  32.6715734  55.8263787  11.6767669  31.8883256  56.3685468  11.7705894
  33.3708479  56.3437767  12.0761910  35.9812384  41.6358417  14.3201875
  36.4781083  40.8828379  14.0002945  35.2099365  41.6722733  13.7545084
  43.8342141  47.3398782  15.9620166  43.8232017  48.2223498  15.5914099
  42.9659521  46.9870333  15.7674703  35.3424638  56.4878851  20.3223006
  36.0552610  57.1226316  20.2498908  34.8514666  56.5842717  19.5063008
  37.0642165  50.3930104  11.8940298  36.1298443  50.5131567  11.7245002
  37.2418833  49.4902571  11.6300308  32.5647353  43.7775800  14.0473559
  32.1945140  43.2246840  14.7354465  33.0606445  43.1733933  13.4948559
  40.4514716  46.2347423  12.4290332  40.9175168  47.0675415  12.3550635
  40.9022216  45.7692405  13.1335591  30.3936551  54.2373295  21.1428577
  31.0946011  54.8709778  21.2957971  29.9231666  54.5788026  20.3824216
  38.5190947  52.5791245   9.4276484  38.7950791  52.4647839  10.3370358
  37.6495446  52.1808729   9.3888657  38.4231379  38.6028010  16.4681233
  37.5094458  38.8332237  16.6363440  38.8524480  38.6866454  17.3195266
  38.1937837  46.7917902  18.9681127  37.5409287  47.0393810  18.3133580
  38.5718217  45.9782040  18.6343605  35.1545011  56.8277595  13.0709298
  35.3367406  56.0099251  13.5337050  35.9777997  57.0445288  12.6334188
  35.4887176  55.7545781  10.3324346  36.0174943  55.2438235   9.7194508
  35.7515396  55.4388311  11.1969879  34.2425410  47.5337713  25.4547164
  33.5666047  47.4331843  26.1249540  35.0653044  47.3776927  25.9183162
  25.9904269  53.7709650  18.0759680  26.5757706  53.0253338  18.2087584
  25.7929108  54.0813607  18.9596344  28.8442924  56.8060897  13.0922122
  28.1753300  57.2907025  12.6086162  28.7055794  57.0530118  14.0065501
  20.5821924  46.3415250  16.7964123  20.6206023  45.8078841  17.5901241
  20.0762217  45.8150456  16.1775100  32.9848193  58.8404641  19.6904780
  33.5366501  59.0036262  20.4553866  33.3254386  59.4309079  19.0184805
  27.9612686  41.1879791  20.2926665  28.0254013  42.0494622  19.8804063
  27.8979806  40.5753792  19.5599024  27.4364959  43.2602923  23.9399699
  28.0636998  42.8780000  24.5537224  26.5792878  43.0417125  24.3055392
  37.8359067  53.6665898  25.5453435  38.3798971  54.2795857  25.0508390
  37.2545912  54.2245477  26.0620448  24.2130502  45.0679352   9.8718054
  24.5083943  44.1590031   9.8185108  23.3118537  45.0467092   9.5499057
  36.1216580  56.7886616  16.6768463  35.9967720  55.9876356  16.1679408
  36.7795671  57.2832810  16.1882433  27.7424749  43.1435349  15.8545603
  27.0211334  43.7571317  15.7153076  28.5318004  43.6793114  15.7762249
  38.1851489  54.5895636  18.3048013  37.2381824  54.4700988  18.2326339
  38.5334262  53.7018134  18.3874274  30.5451062  40.4789775  22.1286255
  31.0685464  40.7252072  22.8912564  30.3263395  41.3109810  21.7089392
  25.9418343  42.7493450   9.9957379  25.6131049  41.8690829   9.8132485
  26.2957714  42.6941119  10.8833769  35.1897922  54.3848353  14.5052365
  35.0422884  53.4565060  14.6859935  36.0151415  54.4068443  14.0209440
  29.0560166  43.0366420  10.3632857  29.3956239  43.5652341   9.6411465
  29.5032287  43.3746826  11.1391424  38.7932044  55.2076911  15.5917238
  39.7178591  55.0019773  15.4541689  38.6247347  54.9593313  16.5006579
  31.7503607  41.4203470  19.8135925  31.4100427  40.6211284  20.2156605
  31.0442613  41.7205181  19.2412758  32.4020079  38.5052783  18.2663248
  33.2246148  38.0313261  18.1442138  32.6458142  39.2843267  18.7661934
  31.0428313  41.5341041   8.5626150  31.7636676  41.9122294   8.0589867
  30.4193618  42.2529918   8.6661128  35.1859436  42.2386190   9.4984482
  35.4023051  43.1210828   9.1973310  34.7053503  41.8472404   8.7690124
  29.9258658  45.1971904  16.0755227  29.7803238  45.5112207  16.9679508
  29.4483861  45.8156804  15.5226125  31.7855041  42.1874451  16.1236116
  31.7716609  41.2915545  15.7868414  32.5027469  42.1945115  16.7574402
  33.6381171  42.6211792  18.1689244  33.3798949  43.5428862  18.1673574
  33.1066212  42.2242226  18.8589708  38.5827360  55.7262579  10.9479329
  38.7564238  55.1609001  10.1953182  39.0756251  56.5263474  10.7658819
  24.4004320  47.7377248  19.0142888  23.8557788  48.5137056  19.1463162
  25.2783670  48.0848052  18.8562009  31.1891936  41.0688832  11.3923686
  31.3107848  40.1405478  11.5914574  30.8993979  41.0827518  10.4802002
  34.0583127  38.7543742  14.5290406  34.0804824  38.8183075  13.5742386
  34.4751186  37.9148251  14.7230912  44.4366751  48.4899002  12.5669629
  44.8797897  47.7406327  12.1688752  43.5593261  48.4809138  12.1843361
  39.5702533  55.0429343   8.0476227  40.2653437  55.6636036   8.2663542
  39.9125683  54.1924694   8.3228605  25.1870342  46.8647144  21.9073045
  24.4452078  47.0129780  22.4937675  24.8663086  47.1255410  21.0439794
  41.4693956  52.4929049   9.5763558  41.9945280  52.8316322   8.8512878
  41.3816308  51.5576064   9.3926693  33.1314004  56.4063122  21.7053435
  33.4401131  56.1612269  22.5776134  33.9289486  56.6109761  21.2172305
  33.1534616  58.5601032  13.9358811  32.7139607  58.0677411  14.6291668
  33.9042733  58.0174000  13.6950887  25.6326955  54.7512573  13.9383439
  26.4584975  54.4516345  13.5582083  25.2821007  53.9820195  14.3873228
  30.6008489  54.1039041  16.0081113  29.9788498  53.4409746  15.7083341
  31.2713355  54.1300173  15.3254761  23.8335560  52.6698899  14.8972373
  22.9967469  52.2421074  14.7156374  23.8059206  52.8631343  15.8343164
  30.6733016  42.5820829  25.6013619  30.7221171  43.4582952  25.2191389
  31.2155530  42.0398222  25.0285262  41.1587862  53.1261952  24.8814756
  40.3683405  53.1086091  24.3419256  40.9221216  53.6650246  25.6363793
  41.2785737  49.9754419  22.1947485  41.3283742  49.8104426  23.1363007
  41.1699660  49.1081678  21.8045365  30.1621995  52.6542964   9.4839574
  30.3110116  53.3378429   8.8306246  30.9688439  52.6348055   9.9989029
  38.5689499  45.9585347  23.5106791  39.4699362  45.8191812  23.2190789
  38.6437474  46.1239802  24.4504969  32.9032304  43.3352202  22.3559978
  32.0335614  43.6285768  22.0842566  33.1391785  43.9192647  23.0767241
  42.7803934  52.3951360  22.4389506  42.4888742  52.7581341  23.2752967
  42.1676065  51.6818369  22.2602838  43.9799616  49.9604240  14.9592076
  44.8146507  50.3994044  15.1229637  44.1158745  49.4842893  14.1400322
  41.0291122  47.5183975  20.9069564  41.5045243  47.7111621  20.0988416
  40.1056687  47.5743161  20.6612948  27.9174628  48.6808142  10.4900643
  27.6720670  47.7770472  10.6880853  28.0870543  48.6825293   9.5480121
  35.6071338  39.5531818  19.8725398  36.1253282  40.2892845  19.5471887
  35.2526471  39.8595812  20.7072157  27.1870276  44.4136500   7.9886804
  26.4939521  44.4880855   7.3326840  26.9422028  43.6496843   8.5108321
  35.8583932  35.9732101  15.3926295  36.1385686  35.3055290  16.0186721
  36.6434539  36.1661197  14.8800959  33.6617401  55.1491095   6.9551321
  33.0891368  55.7681282   6.5021793  34.2350195  55.6990457   7.4891243
  39.7292791  44.3949735  19.1397870  40.6810214  44.4947833  19.1610094
  39.5596241  43.6028004  19.6495954  37.7507170  41.4805318  19.3257271
  37.1557102  41.7610331  18.6303759  37.4656867  41.9699219  20.0974012
  36.8814661  55.4328245   8.0859903  37.8145334  55.3673807   8.2892779
  36.7937874  56.2684512   7.6274436  39.5102677  54.7494115   5.0463851
  39.4316309  54.4153979   5.9399609  40.3312344  55.2415883   5.0455323
  42.2080869  47.6155855  18.2540169  42.1757189  46.6771855  18.4399853
  42.8181492  47.6939891  17.5205994  34.0464199  46.4851908   4.2967374
  34.9923304  46.3558116   4.3655792  33.6678444  45.7466570   4.7736802
  42.3575357  44.4066898  18.2998453  41.8414406  43.6225355  18.1128382
  43.2415306  44.0785615  18.4644972  40.0186084  38.1507914  14.2594265
  39.8210905  37.8423002  15.1437597  40.6285790  38.8769553  14.3892195
  48.0257418  48.6771862  17.3946206  48.7560807  48.4157150  17.9553910
  47.4164364  47.9400583  17.4348274  46.1072716  46.8179724  17.9920657
  45.3805879  46.6835689  17.3837149  45.6920002  47.1256553  18.7977376
  33.9302892  50.5369654  25.7568030  34.8505901  50.7148253  25.9508077
  33.8952475  49.5925699  25.6047730  23.1485057  45.7308247  14.6821305
  22.8287841  44.8773556  14.3895679  22.6018485  45.9456826  15.4379272
  26.9264965  48.4470688  18.3990812  27.1450974  49.3787796  18.4178845
  27.3390738  48.0878663  19.1845615  33.8469182  38.9538774  10.3866500
  33.0369911  38.6085859  10.7621746  34.5353599  38.6446317  10.9754112
  35.7759731  38.0316821  12.0090797  36.3290769  38.4512274  12.6680820
  36.0129817  37.1052569  12.0513753  31.7992830  44.0203894  27.7893561
  31.6989557  44.9698251  27.7205652  31.5814372  43.6922133  26.9169631
  23.0173317  49.3511159  16.6514427  22.3236788  48.9365112  16.1384381
  23.7646308  49.3931695  16.0547846  39.1538538  40.1417346  11.5169461
  38.5737207  40.8002150  11.1347513  38.8874470  39.3194690  11.1056878
  37.6042104  39.5422403  13.7190781  38.1041882  39.6538938  12.9105100
  38.2477712  39.2383456  14.3591590  31.6624100  47.4501033  26.6058622
  31.1791182  48.2501393  26.8122511  31.7485039  47.4608978  25.6526066
  24.9310060  49.2829413  14.5280442  24.9080748  49.3817100  13.5762325
  25.2410696  50.1294564  14.8497608  27.5897437  51.3405568  18.6427056
  28.5440691  51.3089510  18.5756988  27.3909961  50.8796191  19.4577282
  28.1796820  49.9106684  21.2097854  28.9989709  50.4050762  21.2332691
  28.4533627  48.9938652  21.1815421  37.9363416  42.3017436  10.5725809
  37.0489271  42.5867087  10.3546004  38.3517405  42.1411199   9.7253086
  41.2877952  42.3263957  14.2880148  42.0638342  42.8160410  14.5604765
  40.5626086  42.7522011  14.7452018  43.7250510  43.0391576  15.3454089
  44.3195001  42.7987312  14.6347397  43.7977094  42.3198707  15.9727625
  25.9447666  56.8825187  15.6597254  25.8102134  56.1225588  15.0935252
  25.5279728  57.6066087  15.1926043  37.0806629  52.0662111   4.6673829
  37.7842479  52.2712113   5.2831485  36.3569278  52.6338873   4.9322913
  37.9104439  47.8171972  10.7876099  37.8539641  48.2740523   9.9483732
  38.4632782  47.0562657  10.6098942  41.7209245  43.6061704  11.6126219
  41.4646180  43.2058340  12.4434427  41.0962113  44.3205498  11.4876358
  46.0321583  46.3457777  14.1197510  45.4721141  46.4150966  14.8929072
  45.4265087  46.1698762  13.3997007  29.1016792  57.7794504  15.8715697
  28.9849176  58.7239937  15.7694387  28.2809238  57.4768066  16.2601496
  38.9893327  52.5044640   6.7172289  39.8238931  52.0725838   6.5349764
  38.8277670  52.3326654   7.6449184  38.6439219  49.0076753   8.0828629
  38.5888023  48.8421025   7.1417073  38.0185274  49.7152786   8.2390818
  23.4331734  44.2444818  21.9090051  24.0790597  43.7343772  22.3977276
  23.2248885  44.9813499  22.4833476  35.9585126  51.3125665  27.4082191
  36.8276286  51.4866317  27.0468826  35.4791877  52.1320082  27.2857921
  31.9535344  38.5084862   7.6613947  31.9414014  39.4526702   7.8182218
  32.8458766  38.3255008   7.3673408  30.1271306  58.4322766  19.0871625
  31.0298553  58.4646376  19.4038120  29.9008676  57.5023217  19.1017961
  31.8824908  57.1853753  15.7481704  30.9320539  57.1855614  15.6346076
  32.1857394  56.4386487  15.2317738  35.7687464  35.1027639  11.9159884
  35.0019860  34.5486126  12.0616566  36.1798169  35.1749508  12.7774035
  27.7729225  41.3912435  26.0065065  28.6360686  41.0349240  26.2168390
  27.1994635  41.0526330  26.6940469  47.6177602  63.0214291  16.8127466
  48.2556012  62.9021038  16.1090806  47.4998445  63.9695135  16.8715418
  44.4267308  62.9741719  16.7488991  44.0885820  62.8582784  15.8609526
  45.2957076  62.5732884  16.7289997  40.2854124  64.8277196  12.7385882
  39.7218989  64.7367133  11.9702169  40.1706519  64.0077100  13.2188374
  44.9087091  64.1276571  22.7075196  44.8975732  63.7329369  21.8355700
  45.0707730  63.3942644  23.3008968  37.8318556  66.3228387  15.5770102
  38.6239848  65.9819212  15.1616401  38.0715206  66.4323362  16.4972255
  45.8653682  68.4948163   8.0500347  45.2141662  69.0802244   7.6634360
  46.6598045  69.0254358   8.1095384  39.7909310  65.5837300   8.4487481
  40.5640186  65.0366288   8.3100357  40.1434708  66.4481550   8.6601942
  41.6294352  66.9113683  21.6554380  41.3384218  67.8159314  21.5401047
  42.2651336  66.9530210  22.3698450  42.5550559  64.2890531  18.2455740
  43.1514131  64.0646554  17.5312703  42.6125531  63.5475277  18.8481188
  42.1275587  61.7429967   6.0805931  42.3801108  61.2211488   5.3189394
  41.1900146  61.5796112   6.1832614  47.1718870  60.7465745  13.8880674
  47.9581959  60.3285168  13.5371091  47.4357575  61.6511837  14.0562322
  47.3428948  66.1838595   8.5869331  46.7074781  66.2573222   9.2990235
  47.0126354  66.7732194   7.9088410  52.5727297  60.6840978  14.7913653
  53.3052469  60.1140195  15.0251482  51.8166653  60.2962579  15.2320158
  41.8471876  63.6458073   8.2830306  41.7308134  62.9702976   8.9511390
  41.9574136  63.1590446   7.4662459  44.1903417  63.1068220  11.9876995
  43.8261624  62.5798841  12.6989916  45.0470533  62.7166689  11.8143480
  50.0952718  54.3962552  19.2508261  49.7636042  55.2657963  19.0269476
  49.4998331  54.0798836  19.9302292  43.8308904  58.1358119   6.9838344
  43.9983306  59.0038356   7.3508815  43.6406073  58.2985401   6.0599633
  46.5884237  66.5975098  18.6504174  46.2884960  67.5000137  18.5419981
  46.2435297  66.3307281  19.5025327  40.0396719  63.0488895  14.6840878
  39.1147215  62.9165109  14.8918570  40.2881132  63.8283114  15.1810821
  49.9881381  59.1157638  16.3301611  49.0798258  59.0473047  16.0360372
  49.9368977  59.5929583  17.1583437  43.8098125  60.5915777   7.9685010
  43.6897750  61.0372828   8.8070491  43.1150713  60.9401095   7.4098548
  37.4005530  62.6922169  15.5184667  37.5297911  62.9456648  16.4324079
  36.7202981  63.2849877  15.1989322  41.5705017  73.3619419  11.6175142
  41.4929047  74.3127244  11.6963622  40.9666661  73.0165291  12.2750068
  44.0622247  60.5347284  24.2736508  43.2855581  61.0941204  24.2639373
  44.7012810  61.0204067  24.7951379  51.8543027  57.3174077  18.1079485
  51.2117408  57.6106610  17.4619280  51.3497956  57.2026997  18.9132682
  49.5083191  61.0637250   8.7965344  50.4201047  61.2964637   8.6213042
  48.9992838  61.6474294   8.2340423  42.3168619  63.3432737  23.8354475
  43.0583303  63.8817781  23.5589299  41.6105605  63.9699026  23.9926027
  44.1455029  60.4234485  19.8060194  44.9916224  60.8473898  19.9494843
  44.0853666  59.7668109  20.4998757  48.1152773  66.0463068  16.1878926
  47.4861636  66.2108783  15.4854994  47.7278435  66.4604678  16.9589890
  51.9942005  66.9817506  13.5423290  51.3093043  67.3616408  12.9920323
  52.0785855  67.5912833  14.2755237  47.2954474  58.0838853  21.4641368
  47.0515406  58.8380913  20.9275643  47.5714405  58.4624201  22.2988615
  46.8519166  57.2395286  17.0455205  45.9903645  57.5376540  17.3371943
  46.8781600  57.4565685  16.1136238  43.6680735  65.7837477  13.4529011
  44.1319081  66.0625180  12.6633633  43.4037533  64.8820921  13.2702102
  40.5604816  65.3308958  16.3908774  41.1306173  65.7596226  15.7526259
  41.1512928  65.0491543  17.0892960  42.6049621  61.9060629  10.2618576
  43.3073665  62.3581673  10.7292502  42.2730250  61.2644448  10.8898469
  41.0529983  60.4972386  24.6369785  40.4228643  61.1788666  24.8705182
  40.9466071  60.3855467  23.6922924  36.3474955  60.1644182  15.5635710
  35.5574009  60.4201710  15.0875820  36.8386203  60.9792519  15.6687750
  38.2989701  60.5288761  12.5219186  37.5020864  60.6407455  13.0402682
  38.0715293  60.8675413  11.6560077  44.1295368  67.0533464  20.4701701
  44.1939801  67.5153871  21.3059873  43.4206292  66.4230829  20.5984011
  34.6312658  60.4174672  17.9950700  34.8820697  61.3021682  18.2608276
  35.1672207  60.2379274  17.2225792  58.4544758  63.8488169  14.6625962
  57.7008466  63.2795567  14.5069966  58.5892299  63.8150834  15.6096597
  43.8443386  68.7201572  10.3380681  43.7089061  69.5653107  10.7665529
  44.3853198  68.9220849   9.5746615  40.3310726  54.7993151  26.9995037
  39.9377671  54.2459350  27.6742681  41.1476866  55.1103730  27.3901554
  37.2972783  66.2377010  10.9108606  37.8097304  67.0320260  11.0614171
  37.9495496  65.5403300  10.8442208  39.1067668  69.3542766  12.9931360
  39.2834296  70.2760731  12.8052343  39.9024502  69.0401185  13.4225739
  43.2478687  56.2151030  24.5915293  43.9888400  56.8158184  24.5119756
  43.4796609  55.4728668  24.0333336  38.3920025  61.4007398  22.8693523
  38.2773540  60.4992655  23.1700622  37.5364542  61.6471095  22.5178339
  40.2298983  70.8720940  18.9941702  40.7806409  70.7438003  18.2218696
  39.3910459  71.1715829  18.6436595  44.0266155  67.1372067  23.3385933
  44.5594491  66.3760356  23.1085241  43.4980236  66.8445719  24.0810087
  47.1935849  52.2432133  18.8679575  46.8500119  53.1333775  18.7918685
  47.5614812  52.0533791  18.0049160  35.2621700  64.5665664  11.6868177
  36.0996922  64.9762672  11.4701885  35.4399968  63.6265106  11.6568371
  47.1586132  62.2340745   7.3752010  46.6432756  63.0045349   7.6140397
  46.8863441  61.5605881   7.9985071  44.7433243  57.0790445  12.4337248
  43.8874840  56.6897296  12.2542887  45.1560195  57.1582406  11.5737034
  46.2732390  54.6136789  16.8328808  45.7697185  54.5766924  16.0196613
  46.5662997  55.5229531  16.8925465  42.5175276  54.6975518  15.8394990
  43.3828273  54.5018327  15.4800879  42.5852785  54.4685870  16.7664347
  52.1320406  64.9873099   9.3105183  51.3549849  64.6484259   8.8660345
  52.8111887  64.9925722   8.6360148  46.9472435  60.1067837   9.2011791
  46.6422571  60.4213986  10.0521934  47.9002878  60.1849257   9.2439124
  45.3918867  66.2658060  10.8504745  44.8640229  65.5310820  10.5377982
  44.8906370  67.0432736  10.6044713  50.3711713  64.4607080  15.9671791
  49.7135388  65.1506342  16.0551920  51.1752112  64.8503512  16.3105778
  40.1237595  56.9277726  13.2111357  40.6981347  56.7052908  12.4784550
  40.7108577  56.9966421  13.9639958  49.1817172  62.8151453  14.0175733
  49.6949054  63.4481445  14.5197443  49.8318396  62.2152649  13.6519093
  40.4507182  58.9582187   7.2307242  39.6144494  59.2956874   7.5516517
  40.3111952  58.8231167   6.2934379  42.4260263  53.8018975  11.9386426
  41.7724675  53.4867992  11.3143041  42.3840737  53.1794716  12.6646249
  43.5371467  64.0838270   3.8539718  42.6298529  63.8527524   4.0530867
  44.0342499  63.2875889   4.0413700  46.4439546  72.7935777   6.7736404
  45.7701245  73.0967474   7.3821362  46.8305368  73.5964858   6.4241861
  45.6598003  60.2900909  16.2634074  44.7420564  60.5115856  16.1055762
  46.0758147  60.3647219  15.4045781  46.4433051  61.6892324  11.3936754
  47.1904870  62.2013722  11.0843876  46.7124640  61.3676377  12.2541147
  44.7159701  64.1850865   8.3763708  43.8070920  63.9009898   8.4736178
  44.7454785  64.6049944   7.5167015  49.9478968  67.7957455  12.1454876
  49.4941295  66.9548364  12.2020066  49.3172935  68.4318853  12.4829656
  48.8911888  58.7249441  13.3755543  48.1534645  58.2126827  13.7065786
  49.1438661  58.2849822  12.5638820  48.3911908  69.6333951  13.0804694
  48.6834882  70.1939008  12.3617059  48.9010528  69.9262512  13.8357853
  48.9923515  51.5025693  13.9697312  49.2982392  50.6423056  13.6823228
  49.7176120  52.0943313  13.7696306  35.2847871  61.9056379  12.3578910
  35.0872271  61.3125740  11.6329977  34.7294535  61.6008589  13.0754849
  43.2644595  61.7979486  14.4773504  43.3193205  60.8453322  14.4015980
  42.4535797  61.9538925  14.9614802  44.4135789  65.7259609   5.7151787
  43.9755219  65.0095468   5.2557424  45.1546230  65.9535724   5.1536878
  41.2036955  60.4156545  12.2363882  40.3904820  60.7150716  12.6429075
  41.6995949  60.0212234  12.9538365  43.3545533  70.4114302  14.1698147
  43.3121711  70.6375149  13.2406679  44.2708232  70.1777677  14.3183948
  46.8011166  60.8798370  21.0678776  47.1560554  61.1069843  21.9273242
  47.4483298  61.2116747  20.4456032  52.5308903  64.0016806  11.7728105
  52.3926802  64.1918402  10.8449295  52.1745122  64.7636189  12.2296156
  40.6951030  57.9874901  17.8525117  41.3350409  57.8463660  17.1548081
  39.8628560  57.7009414  17.4763719  41.4711333  67.2877331  13.9660110
  42.2651932  66.7927652  13.7642685  40.7603026  66.7595194  13.6027815
  46.2906178  69.6695427  18.3172477  46.3443200  70.2386363  19.0850193
  45.4220959  69.8397312  17.9526515  37.7794097  61.4320413  10.0419862
  36.8491685  61.3704869  10.2589825  37.8751569  60.9096366   9.2456504
  37.6979646  57.9575226  12.6298104  37.9586463  58.8720559  12.5207265
  38.5196818  57.4899669  12.7794717  39.1704571  59.3712983  19.7996929
  39.8427625  59.1630345  19.1509578  38.3434358  59.1735069  19.3602161
  45.0730143  55.9974924  21.8162590  44.4258058  56.6964874  21.7227066
  45.8431159  56.4311068  22.1838838  45.2494278  63.8355689  19.8759409
  46.1786338  63.9866849  19.7028377  44.8285308  63.9239710  19.0208056
  44.0482609  67.8606353  17.6457947  43.9093695  67.4925138  18.5183885
  43.2597206  68.3753993  17.4741905  44.6430761  72.9615450   8.9883483
  44.8182517  72.4903493   9.8029106  43.9563549  73.5881216   9.2164744
  45.5987825  67.2387956  15.0346785  45.2637657  67.1988726  15.9304435
  45.0991770  66.5732672  14.5617195  39.5732069  62.6455586  20.5599366
  39.4351867  61.9135825  21.1610905  40.4836992  62.5564486  20.2783554
  48.5347016  64.5843990   5.3083844  47.9176187  63.8590819   5.2116897
  48.0663505  65.3453351   4.9650919  42.2014369  62.3575545  20.0483045
  42.9113988  61.7168738  20.0069664  42.1583677  62.6088440  20.9709226
  40.9143303  59.3440763  21.8678685  40.3780660  58.8931502  22.5200281
  40.3260012  59.4786672  21.1249149  39.2091847  76.1104813  15.7623344
  39.4488445  76.7423337  16.4402362  38.3661043  75.7592853  16.0488703
  40.3245562  58.8029415   4.4305149  39.4475028  58.6818215   4.0667395
  40.8003315  58.0115493   4.1784037  31.8447702  63.5906574  14.5246656
  32.5318742  63.2768304  13.9367671  31.6895831  64.4947939  14.2513907
  36.6482424  58.4796771  18.9531679  36.5640613  57.8722441  18.2182089
  35.8265131  58.9705789  18.9541176  43.7219709  71.9183935  18.1664848
  43.6489880  72.7238907  18.6784152  43.2797102  72.1175901  17.3412869
  43.5109488  71.1555705  11.6767669  42.7277010  71.6977385  11.7705894
  44.2102233  71.6729685  12.0761910  46.8206138  56.9650335  14.3201875
  47.3174838  56.2120297  14.0002945  46.0493120  57.0014651  13.7545084
  54.6735896  62.6690700  15.9620166  54.6625772  63.5515415  15.5914099
  53.8053275  62.3162251  15.7674703  47.9035919  65.7222022  11.8940298
  46.9692198  65.8423484  11.7245002  48.0812587  64.8194489  11.6300308
  43.4041107  59.1067718  14.0473559  43.0338895  58.5538758  14.7354465
  43.9000200  58.5025851  13.4948559  51.2908470  61.5639341  12.4290332
  51.7568923  62.3967333  12.3550635  51.7415971  61.0984323  13.1335591
  41.2330306  69.5665213  21.1428577  41.9339765  70.2001695  21.2957971
  40.7625421  69.9079944  20.3824216  49.3584701  67.9083162   9.4276484
  49.6344545  67.7939757  10.3370358  48.4889200  67.5100647   9.3888657
  49.2625133  53.9319928  16.4681233  48.3488213  54.1624155  16.6363440
  49.6918235  54.0158372  17.3195266  49.0331592  62.1209820  18.9681127
  48.3803042  62.3685727  18.3133580  49.4111972  61.3073958  18.6343605
  45.9938765  72.1569513  13.0709298  46.1761160  71.3391169  13.5337050
  46.8171751  72.3737205  12.6334188  46.3280931  71.0837698  10.3324346
  46.8568697  70.5730153   9.7194508  46.5909151  70.7680228  11.1969879
  45.0819165  62.8629631  25.4547164  44.4059802  62.7623760  26.1249540
  45.9046799  62.7068845  25.9183162  36.8298024  69.1001568  18.0759680
  37.4151461  68.3545255  18.2087584  36.6322862  69.4105524  18.9596344
  39.6836679  72.1352815  13.0922122  39.0147054  72.6198943  12.6086162
  39.5449549  72.3822035  14.0065501  31.4215678  61.6707168  16.7964123
  31.4599778  61.1370758  17.5901241  30.9155971  61.1442373  16.1775100
  43.8241948  74.1696558  19.6904780  44.3760256  74.3328180  20.4553866
  44.1648141  74.7600996  19.0184805  38.8006441  56.5171708  20.2926665
  38.8647767  57.3786539  19.8804063  38.7373561  55.9045710  19.5599024
  38.2758713  58.5894841  23.9399699  38.9030752  58.2071918  24.5537224
  37.4186632  58.3709043  24.3055392  35.0524256  60.3971270   9.8718054
  35.3477697  59.4881948   9.8185108  34.1512292  60.3759009   9.5499057
  46.9610335  72.1178534  16.6768463  46.8361474  71.3168274  16.1679408
  47.6189426  72.6124727  16.1882433  38.5818503  58.4727267  15.8545603
  37.8605089  59.0863234  15.7153076  39.3711759  59.0085031  15.7762249
  41.3844817  55.8081693  22.1286255  41.9079218  56.0543990  22.8912564
  41.1657150  56.6401728  21.7089392  36.7812098  58.0785368   9.9957379
  36.4524804  57.1982747   9.8132485  37.1351468  58.0233036  10.8833769
  46.0291676  69.7140270  14.5052365  45.8816639  68.7856978  14.6859935
  46.8545170  69.7360361  14.0209440  39.8953921  58.3658337  10.3632857
  40.2349993  58.8944259   9.6411465  40.3426041  58.7038744  11.1391424
  49.6325798  70.5368829  15.5917238  50.5572346  70.3311690  15.4541689
  49.4641102  70.2885230  16.5006579  42.5897362  56.7495388  19.8135925
  42.2494182  55.9503201  20.2156605  41.8836368  57.0497099  19.2412758
  43.2413833  53.8344701  18.2663248  44.0639903  53.3605179  18.1442138
  43.4851897  54.6135184  18.7661934  41.8822068  56.8632959   8.5626150
  42.6030430  57.2414212   8.0589867  41.2587372  57.5821836   8.6661128
  46.0253191  57.5678108   9.4984482  46.2416805  58.4502746   9.1973310
  45.5447258  57.1764321   8.7690124  40.7652412  60.5263821  16.0755227
  40.6196993  60.8404124  16.9679508  40.2877616  61.1448722  15.5226125
  42.6248795  57.5166369  16.1236116  42.6110364  56.6207462  15.7868414
  43.3421223  57.5237033  16.7574402  44.4774926  57.9503709  18.1689244
  44.2192704  58.8720780  18.1673574  43.9459966  57.5534144  18.8589708
  49.4221115  71.0554496  10.9479329  49.5957992  70.4900919  10.1953182
  49.9150006  71.8555391  10.7658819  35.2398074  63.0669166  19.0142888
  34.6951542  63.8428974  19.1463162  36.1177424  63.4139970  18.8562009
  42.0285691  56.3980749  11.3923686  42.1501602  55.4697396  11.5914574
  41.7387733  56.4119435  10.4802002  44.8976881  54.0835660  14.5290406
  44.9198578  54.1474993  13.5742386  45.3144940  53.2440169  14.7230912
  55.2760506  63.8190919  12.5669629  55.7191652  63.0698245  12.1688752
  54.3987016  63.8101056  12.1843361  50.4096287  70.3721261   8.0476227
  51.1047192  70.9927954   8.2663542  50.7519437  69.5216612   8.3228605
  36.0264096  62.1939062  21.9073045  35.2845832  62.3421697  22.4937675
  35.7056840  62.4547327  21.0439794  52.3087710  67.8220966   9.5763558
  52.8339034  68.1608239   8.8512878  52.2210063  66.8867982   9.3926693
  43.9928371  73.8892950  13.9358811  43.5533361  73.3969328  14.6291668
  44.7436488  73.3465917  13.6950887  36.4720710  70.0804491  13.9383439
  37.2978730  69.7808262  13.5582083  36.1214762  69.3112113  14.3873228
  41.4402243  69.4330959  16.0081113  40.8182252  68.7701664  15.7083341
  42.1107110  69.4592091  15.3254761  34.6729315  67.9990817  14.8972373
  33.8361223  67.5712991  14.7156374  34.6452960  68.1923260  15.8343164
  41.5126771  57.9112747  25.6013619  41.5614926  58.7874870  25.2191389
  42.0549285  57.3690140  25.0285262  41.0015750  67.9834882   9.4839574
  41.1503870  68.6670347   8.8306246  41.8082193  67.9639972   9.9989029
  43.7426059  58.6644119  22.3559978  42.8729368  58.9577685  22.0842566
  43.9785539  59.2484564  23.0767241  54.8193370  65.2896158  14.9592076
  55.6540262  65.7285962  15.1229637  54.9552499  64.8134811  14.1400322
  38.7568383  64.0100060  10.4900643  38.5114425  63.1062390  10.6880853
  38.9264297  64.0117210   9.5480121  46.4465093  54.8823736  19.8725398
  46.9647037  55.6184763  19.5471887  46.0920226  55.1887729  20.7072157
  38.0264030  59.7428417   7.9886804  37.3333275  59.8172772   7.3326840
  37.7815782  58.9788761   8.5108321  46.6977687  51.3024019  15.3926295
  46.9779441  50.6347208  16.0186721  47.4828294  51.4953114  14.8800959
  44.5011155  70.4783013   6.9551321  43.9285123  71.0973200   6.5021793
  45.0743949  71.0282374   7.4891243  50.5686545  59.7241653  19.1397870
  51.5203968  59.8239750  19.1610094  50.3989996  58.9319921  19.6495954
  48.5900925  56.8097236  19.3257271  47.9950857  57.0902249  18.6303759
  48.3050621  57.2991137  20.0974012  47.7208415  70.7620163   8.0859903
  48.6539088  70.6965724   8.2892779  47.6331628  71.5976430   7.6274436
  50.3496432  70.0786033   5.0463851  50.2710063  69.7445897   5.9399609
  51.1706099  70.5707801   5.0455323  44.8857954  61.8143825   4.2967374
  45.8317059  61.6850033   4.3655792  44.5072199  61.0758487   4.7736802
  50.8579839  53.4799831  14.2594265  50.6604660  53.1714920  15.1437597
  51.4679544  54.2061470  14.3892195  58.8651173  64.0063779  17.3946206
  59.5954561  63.7449067  17.9553910  58.2558118  63.2692501  17.4348274
  43.0700871  59.7393802   4.2322259  42.1632327  59.4426914   4.3084972
  43.3476852  59.4423620   3.3656545  33.9878811  61.0600165  14.6821305
  33.6681596  60.2065473  14.3895679  33.4412240  61.2748743  15.4379272
  37.7658719  63.7762606  18.3990812  37.9844729  64.7079714  18.4178845
  38.1784493  63.4170581  19.1845615  44.6862937  54.2830691  10.3866500
  43.8763665  53.9377776  10.7621746  45.3747354  53.9738235  10.9754112
  46.6153485  53.3608738  12.0090797  47.1684524  53.7804192  12.6680820
  46.8523571  52.4344486  12.0513753  42.6386584  59.3495812  27.7893561
  42.5383311  60.2990169  27.7205652  42.4208126  59.0214051  26.9169631
  41.8399656  56.5980737   4.3734238  42.7018820  56.9235635   4.6330055
  42.0250000  55.8112233   3.8607304  33.8567071  64.6803077  16.6514427
  33.1630543  64.2657029  16.1384381  34.6040062  64.7223613  16.0547846
  49.9932292  55.4709263  11.5169461  49.4130961  56.1294067  11.1347513
  49.7268225  54.6486608  11.1056878  48.4435859  54.8714321  13.7190781
  48.9435637  54.9830856  12.9105100  49.0871467  54.5675374  14.3591590
  42.5017854  62.7792951  26.6058622  42.0184936  63.5793311  26.8122511
  42.5878793  62.7900896  25.6526066  35.7703814  64.6121330  14.5280442
  35.7474502  64.7109018  13.5762325  36.0804451  65.4586481  14.8497608
  38.4291192  66.6697485  18.6427056  39.3834445  66.6381428  18.5756988
  38.2303715  66.2088109  19.4577282  39.0190574  65.2398601  21.2097854
  39.8383463  65.7342680  21.2332691  39.2927382  64.3230570  21.1815421
  48.7757170  57.6309354  10.5725809  47.8883025  57.9159004  10.3546004
  49.1911159  57.4703117   9.7253086  52.1271706  57.6555875  14.2880148
  52.9032096  58.1452327  14.5604765  51.4019841  58.0813929  14.7452018
  54.5644265  58.3683494  15.3454089  55.1588756  58.1279230  14.6347397
  54.6370849  57.6490625  15.9727625  36.7841421  72.2117105  15.6597254
  36.6495889  71.4517506  15.0935252  36.3673483  72.9358005  15.1926043
  47.9200384  67.3954028   4.6673829  48.6236234  67.6004031   5.2831485
  47.1963032  67.9630790   4.9322913  48.7498194  63.1463890  10.7876099
  48.6933395  63.6032441   9.9483732  49.3026536  62.3854574  10.6098942
  52.5603000  58.9353622  11.6126219  52.3039934  58.5350257  12.4434427
  51.9355868  59.6497416  11.4876358  56.8715338  61.6749695  14.1197510
  56.3114896  61.7442884  14.8929072  56.2658841  61.4990679  13.3997007
  39.9410547  73.1086422  15.8715697  39.8242931  74.0531854  15.7694387
  39.1202993  72.8059983  16.2601496  49.8287081  67.8336558   6.7172289
  50.6632685  67.4017756   6.5349764  49.6671424  67.6618571   7.6449184
  49.4832973  64.3368671   8.0828629  49.4281777  64.1712942   7.1417073
  48.8579029  65.0444704   8.2390818  34.2725488  59.5736735  21.9090051
  34.9184352  59.0635689  22.3977276  34.0642639  60.3105417  22.4833476
  42.7929099  53.8376780   7.6613947  42.7807769  54.7818620   7.8182218
  43.6852521  53.6546925   7.3673408  40.9665061  73.7614684  19.0871625
  41.8692307  73.7938294  19.4038120  40.7402431  72.8315135  19.1017961
  42.7218663  72.5145670  15.7481704  41.7714294  72.5147532  15.6346076
  43.0251149  71.7678405  15.2317738  46.6081218  50.4319557  11.9159884
  45.8413614  49.8778043  12.0616566  47.0191923  50.5041425  12.7774035
  38.6122979  56.7204352  26.0065065  39.4754441  56.3641157  26.2168390
  38.0388390  56.3818247  26.6940469  58.4571356  78.3506209  16.8127466
  59.0949766  78.2312956  16.1090806  58.3392199  79.2987053  16.8715418
  55.2661062  78.3033637  16.7488991  54.9279574  78.1874702  15.8609526
  56.1350831  77.9024802  16.7289997  51.1247878  80.1569113  12.7385882
  50.5612743  80.0659050  11.9702169  51.0100273  79.3369018  13.2188374
  56.7047437  83.8240081   8.0500347  56.0535417  84.4094161   7.6634360
  57.4991800  84.3546276   8.1095384  50.6303064  80.9129218   8.4487481
  51.4033940  80.3658205   8.3100357  50.9828463  81.7773467   8.6601942
  52.9669342  77.0721884   6.0805931  53.2194863  76.5503406   5.3189394
  52.0293901  76.9088030   6.1832614  58.0112625  76.0757663  13.8880674
  58.7975714  75.6577086  13.5371091  58.2751329  76.9803755  14.0562322
  58.1822702  81.5130513   8.5869331  57.5468535  81.5865139   9.2990235
  57.8520108  82.1024112   7.9088410  63.4121052  76.0132896  14.7913653
  64.1446224  75.4432113  15.0251482  62.6560408  75.6254496  15.2320158
  52.6865631  78.9749990   8.2830306  52.5701889  78.2994894   8.9511390
  52.7967890  78.4882364   7.4662459  55.0297172  78.4360137  11.9876995
  54.6655379  77.9090758  12.6989916  55.8864287  78.0458606  11.8143480
  60.9346472  69.7254470  19.2508261  60.6029797  70.5949881  19.0269476
  60.3392086  69.4090754  19.9302292  54.6702659  73.4650037   6.9838344
  54.8377061  74.3330273   7.3508815  54.4799828  73.6277319   6.0599633
  57.4277992  81.9267016  18.6504174  57.1278715  82.8292055  18.5419981
  57.0829051  81.6599199  19.5025327  50.8790473  78.3780813  14.6840878
  49.9540970  78.2457027  14.8918570  51.1274886  79.1575032  15.1810821
  60.8275135  74.4449556  16.3301611  59.9192013  74.3764965  16.0360372
  60.7762731  74.9221501  17.1583437  54.6491879  75.9207695   7.9685010
  54.5291505  76.3664745   8.8070491  53.9544468  76.2693012   7.4098548
  48.2399284  78.0214086  15.5184667  48.3691665  78.2748565  16.4324079
  47.5596736  78.6141794  15.1989322  52.4098772  88.6911336  11.6175142
  52.3322801  89.6419161  11.6963622  51.8060415  88.3457209  12.2750068
  62.6936782  72.6465994  18.1079485  62.0511162  72.9398528  17.4619280
  62.1891710  72.5318915  18.9132682  60.3476946  76.3929168   8.7965344
  61.2594802  76.6256554   8.6213042  59.8386593  76.9766212   8.2340423
  58.9546528  81.3754986  16.1878926  58.3255390  81.5400700  15.4854994
  58.5672190  81.7896596  16.9589890  62.8335760  82.3109424  13.5423290
  62.1486798  82.6908325  12.9920323  62.9179609  82.9204751  14.2755237
  58.1348229  73.4130771  21.4641368  57.8909160  74.1672831  20.9275643
  58.4108159  73.7916118  22.2988615  60.0886691  79.9569383  20.1418633
  60.3003587  80.6001143  19.4653014  60.0416440  79.1231700  19.6740563
  57.6912920  72.5687204  17.0455205  56.8297399  72.8668457  17.3371943
  57.7175355  72.7857603  16.1136238  54.5074490  81.1129394  13.4529011
  54.9712835  81.3917097  12.6633633  54.2431288  80.2112839  13.2702102
  53.4443376  77.2352547  10.2618576  54.1467419  77.6873590  10.7292502
  53.1124004  76.5936365  10.8898469  47.1868710  75.4936099  15.5635710
  46.3967764  75.7493628  15.0875820  47.6779957  76.3084437  15.6687750
  61.2032519  82.8341338  18.3140990  62.0249963  82.4321526  18.0323672
  61.1994922  82.7309573  19.2657106  49.1383455  75.8580679  12.5219186
  48.3414618  75.9699373  13.0402682  48.9109047  76.1967331  11.6560077
  45.4706413  75.7466590  17.9950700  45.7214451  76.6313600  18.2608276
  46.0065961  75.5671191  17.2225792  69.2938512  79.1780087  14.6625962
  68.5402221  78.6087485  14.5069966  69.4286054  79.1442751  15.6096597
  54.6837140  84.0493489  10.3380681  54.5482815  84.8945025  10.7665529
  55.2246953  84.2512767   9.5746615  48.1366538  81.5668927  10.9108606
  48.6491058  82.3612178  11.0614171  48.7889251  80.8695218  10.8442208
  49.9461423  84.6834684  12.9931360  50.1228051  85.6052648  12.8052343
  50.7418256  84.3693103  13.4225739  51.0692738  86.2012857  18.9941702
  51.6200163  86.0729921  18.2218696  50.2304214  86.5007746  18.6436595
  58.0329604  67.5724051  18.8679575  57.6893873  68.4625693  18.7918685
  58.4008567  67.3825709  18.0049160  46.1015455  79.8957582  11.6868177
  46.9390677  80.3054590  11.4701885  46.2793722  78.9557024  11.6568371
  57.9979887  77.5632662   7.3752010  57.4826510  78.3337267   7.6140397
  57.7257195  76.8897798   7.9985071  55.5826998  72.4082363  12.4337248
  54.7268594  72.0189213  12.2542887  55.9953949  72.4874324  11.5737034
  57.1126144  69.9428706  16.8328808  56.6090940  69.9058841  16.0196613
  57.4056751  70.8521449  16.8925465  62.9714161  80.3165017   9.3105183
  62.1943604  79.9776176   8.8660345  63.6505642  80.3217640   8.6360148
  57.7866190  75.4359754   9.2011791  57.4816325  75.7505903  10.0521934
  58.7396632  75.5141174   9.2439124  56.2312622  81.5949978  10.8504745
  55.7033983  80.8602737  10.5377982  55.7300124  82.3724654  10.6044713
  61.2105468  79.7898998  15.9671791  60.5529142  80.4798260  16.0551920
  62.0145867  80.1795430  16.3105778  50.9631349  72.2569644  13.2111357
  51.5375101  72.0344825  12.4784550  51.5502332  72.3258338  13.9639958
  60.0210927  78.1443371  14.0175733  60.5342808  78.7773363  14.5197443
  60.6712150  77.5444566  13.6519093  51.2900936  74.2874105   7.2307242
  50.4538249  74.6248791   7.5516517  51.1505706  74.1523085   6.2934379
  53.2654017  69.1310893  11.9386426  52.6118429  68.8159910  11.3143041
  53.2234491  68.5086633  12.6646249  54.3765222  79.4130188   3.8539718
  53.4692284  79.1819441   4.0530867  54.8736254  78.6167807   4.0413700
  56.4991757  75.6192826  16.2634074  55.5814319  75.8407773  16.1055762
  56.9151901  75.6939137  15.4045781  57.2826805  77.0184242  11.3936754
  58.0298624  77.5305639  11.0843876  57.5518395  76.6968295  12.2541147
  55.5553455  79.5142783   8.3763708  54.6464675  79.2301816   8.4736178
  55.5848539  79.9341861   7.5167015  60.7872723  83.1249372  12.1454876
  60.3335050  82.2840282  12.2020066  60.1566689  83.7610771  12.4829656
  59.7305642  74.0541358  13.3755543  58.9928399  73.5418744  13.7065786
  59.9832416  73.6141740  12.5638820  59.2305662  84.9625869  13.0804694
  59.5228636  85.5230926  12.3617059  59.7404283  85.2554430  13.8357853
  59.8317270  66.8317610  13.9697312  60.1376146  65.9714974  13.6823228
  60.5569874  67.4235230  13.7696306  46.1241626  77.2348297  12.3578910
  45.9266026  76.6417658  11.6329977  45.5688290  76.9300507  13.0754849
  54.1038349  77.1271403  14.4773504  54.1586959  76.1745240  14.4015980
  53.2929551  77.2830842  14.9614802  55.2529543  81.0551526   5.7151787
  54.8148973  80.3387385   5.2557424  55.9939984  81.2827641   5.1536878
  52.0430709  75.7448463  12.2363882  51.2298575  76.0442634  12.6429075
  52.5389703  75.3504152  12.9538365  54.1939287  85.7406220  14.1698147
  54.1515466  85.9667066  13.2406679  55.1101986  85.5069595  14.3183948
  63.3702658  79.3308723  11.7728105  63.2320557  79.5210319  10.8449295
  63.0138877  80.0928106  12.2296156  63.3972038  81.3985250  16.7839377
  63.8308544  81.3060540  17.6322431  64.1103618  81.3742751  16.1459393
  52.3105088  82.6169249  13.9660110  53.1045686  82.1219569  13.7642685
  51.5996780  82.0887112  13.6027815  57.1299932  84.9987345  18.3172477
  57.1836955  85.5678281  19.0850193  56.2614714  85.1689230  17.9526515
  48.6187851  76.7612331  10.0419862  47.6885440  76.6996786  10.2589825
  48.7145323  76.2388284   9.2456504  48.5373400  73.2867144  12.6298104
  48.7980218  74.2012477  12.5207265  49.3590573  72.8191586  12.7794717
  64.2587587  81.4408951  19.3172262  64.4523477  82.3454762  19.5631537
  64.1588205  80.9816370  20.1510847  56.0888032  79.1647607  19.8759409
  57.0180092  79.3158766  19.7028377  55.6679062  79.2531627  19.0208056
  54.8876364  83.1898271  17.6457947  54.7487450  82.8217055  18.5183885
  54.0990960  83.7045910  17.4741905  55.4824516  88.2907367   8.9883483
  55.6576272  87.8195411   9.8029106  54.7957304  88.9173134   9.2164744
  56.4381579  82.5679874  15.0346785  56.1031412  82.5280644  15.9304435
  55.9385525  81.9024590  14.5617195  59.3740771  79.9135908   5.3083844
  58.7569941  79.1882736   5.2116897  58.9057259  80.6745268   4.9650919
  50.0485601  91.4396730  15.7623344  50.2882199  92.0715254  16.4402362
  49.2054798  91.0884770  16.0488703  51.1639317  74.1321332   4.4305149
  50.2868783  74.0110133   4.0667395  51.6397070  73.3407411   4.1784037
  42.6841457  78.9198492  14.5246656  43.3712497  78.6060222  13.9367671
  42.5289585  79.8239857  14.2513907  54.5613463  87.2475853  18.1664848
  54.4883635  88.0530824  18.6784152  54.1190856  87.4467819  17.3412869
  54.3503243  86.4847623  11.6767669  53.5670765  87.0269303  11.7705894
  55.0495988  87.0021602  12.0761910  57.6599893  72.2942252  14.3201875
  58.1568592  71.5412215  14.0002945  56.8886874  72.3306569  13.7545084
  65.5129650  77.9982618  15.9620166  65.5019526  78.8807333  15.5914099
  64.6447030  77.6454169  15.7674703  57.0212147  87.1462687  20.3223006
  57.7340119  87.7810152  20.2498908  56.5302175  87.2426553  19.5063008
  58.7429674  81.0513939  11.8940298  57.8085952  81.1715402  11.7245002
  58.9206342  80.1486406  11.6300308  54.2434862  74.4359635  14.0473559
  53.8732649  73.8830676  14.7354465  54.7393954  73.8317769  13.4948559
  62.1302225  76.8931259  12.4290332  62.5962677  77.7259250  12.3550635
  62.5809725  76.4276240  13.1335591  60.1978456  83.2375080   9.4276484
  60.4738300  83.1231675  10.3370358  59.3282955  82.8392565   9.3888657
  60.1018888  69.2611846  16.4681233  59.1881967  69.4916073  16.6363440
  60.5311989  69.3450290  17.3195266  59.8725346  77.4501738  18.9681127
  59.2196796  77.6977645  18.3133580  60.2505726  76.6365876  18.6343605
  56.8332520  87.4861431  13.0709298  57.0154915  86.6683087  13.5337050
  57.6565506  87.7029123  12.6334188  57.1674685  86.4129616  10.3324346
  57.6962452  85.9022071   9.7194508  57.4302905  86.0972146  11.1969879
  50.5230433  87.4644733  13.0922122  49.8540809  87.9490860  12.6086162
  50.3843303  87.7113953  14.0065501  42.2609433  76.9999085  16.7964123
  42.2993532  76.4662676  17.5901241  41.7549726  76.4734291  16.1775100
  54.6635702  89.4988476  19.6904780  55.2154010  89.6620098  20.4553866
  55.0041895  90.0892914  19.0184805  45.8918011  75.7263188   9.8718054
  46.1871452  74.8173866   9.8185108  44.9906046  75.7050927   9.5499057
  57.8004089  87.4470452  16.6768463  57.6755229  86.6460192  16.1679408
  58.4583180  87.9416645  16.1882433  59.8638998  85.2479472  18.3048013
  58.9169333  85.1284823  18.2326339  60.2121771  84.3601970  18.3874274
  47.6205852  73.4077285   9.9957379  47.2918558  72.5274664   9.8132485
  47.9745223  73.3524954  10.8833769  56.8685431  85.0432188  14.5052365
  56.7210393  84.1148895  14.6859935  57.6938924  85.0652279  14.0209440
  50.7347675  73.6950255  10.3632857  51.0743748  74.2236176   9.6411465
  51.1819796  74.0330661  11.1391424  60.4719553  85.8660747  15.5917238
  61.3966100  85.6603608  15.4541689  60.3034856  85.6177148  16.5006579
  52.7215822  72.1924877   8.5626150  53.4424185  72.5706129   8.0589867
  52.0981127  72.9113753   8.6661128  56.8646945  72.8970026   9.4984482
  57.0810560  73.7794664   9.1973310  56.3841012  72.5056239   8.7690124
  53.4642550  72.8458287  16.1236116  53.4504118  71.9499380  15.7868414
  54.1814978  72.8528951  16.7574402  60.2614869  86.3846414  10.9479329
  60.4351747  85.8192837  10.1953182  60.7543760  87.1847309  10.7658819
  52.8679445  71.7272667  11.3923686  52.9895357  70.7989313  11.5914574
  52.5781488  71.7411353  10.4802002  55.7370636  69.4127578  14.5290406
  55.7592333  69.4766911  13.5742386  56.1538695  68.5732086  14.7230912
  66.1154260  79.1482837  12.5669629  66.5585406  78.3990162  12.1688752
  65.2380770  79.1392973  12.1843361  63.1481465  83.1512884   9.5763558
  63.6732789  83.4900157   8.8512878  63.0603817  82.2159899   9.3926693
  54.8322125  89.2184867  13.9358811  54.3927116  88.7261246  14.6291668
  55.5830242  88.6757835  13.6950887  47.3114464  85.4096408  13.9383439
  48.1372484  85.1100180  13.5582083  46.9608516  84.6404031  14.3873228
  52.2795998  84.7622876  16.0081113  51.6576007  84.0993581  15.7083341
  52.9500864  84.7884008  15.3254761  45.5123069  83.3282735  14.8972373
  44.6754978  82.9004909  14.7156374  45.4846715  83.5215178  15.8343164
  51.8409504  83.3126800   9.4839574  51.9897625  83.9962264   8.8306246
  52.6475948  83.2931890   9.9989029  65.6587125  80.6188075  14.9592076
  66.4934016  81.0577879  15.1229637  65.7946254  80.1426729  14.1400322
  62.7078631  78.1767810  20.9069564  63.1832752  78.3695457  20.0988416
  61.7844196  78.2326996  20.6612948  49.5962137  79.3391977  10.4900643
  49.3508179  78.4354307  10.6880853  49.7658052  79.3409128   9.5480121
  48.8657785  75.0720335   7.9886804  48.1727030  75.1464690   7.3326840
  48.6209537  74.3080679   8.5108321  57.5371441  66.6315936  15.3926295
  57.8173195  65.9639125  16.0186721  58.3222048  66.8245032  14.8800959
  55.3404910  85.8074930   6.9551321  54.7678877  86.4265117   6.5021793
  55.9137704  86.3574292   7.4891243  61.4080300  75.0533570  19.1397870
  62.3597723  75.1531668  19.1610094  61.2383750  74.2611839  19.6495954
  59.4294679  72.1389154  19.3257271  58.8344611  72.4194166  18.6303759
  59.1444376  72.6283054  20.0974012  58.5602170  86.0912080   8.0859903
  59.4932843  86.0257642   8.2892779  58.4725383  86.9268347   7.6274436
  63.8868378  78.2739690  18.2540169  63.8544698  77.3355691  18.4399853
  64.4969001  78.3523727  17.5205994  55.7251708  77.1435743   4.2967374
  56.6710813  77.0141951   4.3655792  55.3465953  76.4050405   4.7736802
  64.0362866  75.0650733  18.2998453  63.5201915  74.2809190  18.1128382
  64.9202815  74.7369450  18.4644972  61.6973593  68.8091749  14.2594265
  61.4998414  68.5006837  15.1437597  62.3073299  69.5353388  14.3892195
  69.7044927  79.3355697  17.3946206  70.4348316  79.0740985  17.9553910
  69.0951873  78.5984419  17.4348274  67.7860225  77.4763559  17.9920657
  67.0593388  77.3419524  17.3837149  67.3707511  77.7840388  18.7977376
  53.9094626  75.0685719   4.2322259  53.0026081  74.7718832   4.3084972
  54.1870607  74.7715537   3.3656545  44.8272566  76.3892083  14.6821305
  44.5075350  75.5357391  14.3895679  44.2805994  76.6040661  15.4379272
  55.5256691  69.6122609  10.3866500  54.7157420  69.2669694  10.7621746
  56.2141108  69.3030153  10.9754112  57.4547240  68.6900656  12.0090797
  58.0078278  69.1096109  12.6680820  57.6917326  67.7636404  12.0513753
  52.6793410  71.9272655   4.3734238  53.5412574  72.2527553   4.6330055
  52.8643754  71.1404151   3.8607304  44.6960826  80.0094994  16.6514427
  44.0024297  79.5948947  16.1384381  45.4433817  80.0515531  16.0547846
  60.8326047  70.8001181  11.5169461  60.2524716  71.4585985  11.1347513
  60.5661979  69.9778526  11.1056878  59.2829613  70.2006239  13.7190781
  59.7829391  70.3122773  12.9105100  59.9265221  69.8967292  14.3591590
  46.6097569  79.9413248  14.5280442  46.5868257  80.0400935  13.5762325
  46.9198205  80.7878399  14.8497608  59.6150925  72.9601271  10.5725809
  58.7276780  73.2450922  10.3546004  60.0304914  72.7995035   9.7253086
  62.9665461  72.9847792  14.2880148  63.7425851  73.4744245  14.5604765
  62.2413595  73.4105847  14.7452018  65.4038019  73.6975412  15.3454089
  65.9982510  73.4571148  14.6347397  65.4764603  72.9782542  15.9727625
  47.6235175  87.5409023  15.6597254  47.4889643  86.7809423  15.0935252
  47.2067237  88.2649922  15.1926043  59.5891948  78.4755807  10.7876099
  59.5327150  78.9324359   9.9483732  60.1420291  77.7146492  10.6098942
  63.3996754  74.2645539  11.6126219  63.1433689  73.8642175  12.4434427
  62.7749622  74.9789333  11.4876358  67.7109092  77.0041613  14.1197510
  67.1508650  77.0734802  14.8929072  67.1052596  76.8282597  13.3997007
  50.7804301  88.4378340  15.8715697  50.6636685  89.3823772  15.7694387
  49.9596747  88.1351901  16.2601496  60.6680836  83.1628475   6.7172289
  61.5026440  82.7309674   6.5349764  60.5065179  82.9910489   7.6449184
  60.3226728  79.6660589   8.0828629  60.2675532  79.5004860   7.1417073
  59.6972783  80.3736622   8.2390818  53.6322853  69.1668698   7.6613947
  53.6201523  70.1110538   7.8182218  54.5246275  68.9838843   7.3673408
  51.8058815  89.0906602  19.0871625  52.7086062  89.1230212  19.4038120
  51.5796185  88.1607052  19.1017961  53.5612417  87.8437588  15.7481704
  52.6108048  87.8439450  15.6346076  53.8644903  87.0970323  15.2317738
  57.4474973  65.7611474  11.9159884  56.6807369  65.2069961  12.0616566
  57.8585678  65.8333343  12.7774035  69.2965111  93.6798126  16.8127466
  69.9343521  93.5604874  16.1090806  69.1785954  94.6278970  16.8715418
  66.1054817  93.6325555  16.7488991  65.7673328  93.5166619  15.8609526
  66.9744585  93.2316720  16.7289997  66.5874600  94.7860406  22.7075196
  66.5763241  94.3913205  21.8355700  66.7495239  94.0526479  23.3008968
  59.5106065  96.9812223  15.5770102  60.3027357  96.6403047  15.1616401
  59.7502715  97.0907198  16.4972255  63.3081861  97.5697518  21.6554380
  63.0171727  98.4743149  21.5401047  63.9438845  97.6114046  22.3698450
  64.2338068  94.9474367  18.2455740  64.8301640  94.7230389  17.5312703
  64.2913039  94.2059112  18.8481188  71.7740227  85.0546388  19.2508261
  71.4423551  85.9241799  19.0269476  71.1785840  84.7382672  19.9302292
  68.2671746  97.2558934  18.6504174  67.9672469  98.1583972  18.5419981
  67.9222806  96.9891117  19.5025327  61.7184228  93.7072730  14.6840878
  60.7934724  93.5748945  14.8918570  61.9668641  94.4866950  15.1810821
  71.6668890  89.7741474  16.3301611  70.7585767  89.7056882  16.0360372
  71.6156486  90.2513419  17.1583437  59.0793039  93.3506004  15.5184667
  59.2085420  93.6040483  16.4324079  58.3990490  93.9433712  15.1989322
  65.7409756  91.1931119  24.2736508  64.9643090  91.7525040  24.2639373
  66.3800319  91.6787902  24.7951379  73.5330536  87.9757912  18.1079485
  72.8904917  88.2690445  17.4619280  73.0285465  87.8610833  18.9132682
  63.9956128  94.0016573  23.8354475  64.7370812  94.5401617  23.5589299
  63.2893114  94.6282861  23.9926027  69.4711468  96.1445713  22.4326637
  69.8794824  95.7028124  21.6881269  68.7488729  95.5698341  22.6860830
  65.8242538  91.0818320  19.8060194  66.6703733  91.5057734  19.9494843
  65.7641175  90.4251944  20.4998757  68.9741983  88.7422688  21.4641368
  68.7302915  89.4964749  20.9275643  69.2501914  89.1208036  22.2988615
  70.9280446  95.2861301  20.1418633  71.1397341  95.9293061  19.4653014
  70.8810194  94.4523617  19.6740563  68.5306675  87.8979121  17.0455205
  67.6691154  88.1960375  17.3371943  68.5569109  88.1149520  16.1136238
  62.2392325  95.9892793  16.3908774  62.8093682  96.4180062  15.7526259
  62.8300437  95.7075378  17.0892960  62.7317492  91.1556221  24.6369785
  62.1016152  91.8372502  24.8705182  62.6253580  91.0439303  23.6922924
  58.0262464  90.8228017  15.5635710  57.2361518  91.0785545  15.0875820
  58.5173712  91.6376355  15.6687750  59.9777210  91.1872596  12.5219186
  59.1808373  91.2991290  13.0402682  59.7502802  91.5259248  11.6560077
  65.8082877  97.7117299  20.4701701  65.8727310  98.1737707  21.3059873
  65.0993801  97.0814664  20.5984011  56.3100167  91.0758507  17.9950700
  56.5608206  91.9605517  18.2608276  56.8459716  90.8963109  17.2225792
  64.9266196  86.8734866  24.5915293  65.6675909  87.4742019  24.5119756
  65.1584118  86.1312504  24.0333336  60.0707534  92.0591233  22.8693523
  59.9561049  91.1576490  23.1700622  59.2152051  92.3054930  22.5178339
  67.1499371 100.0008973  24.4681023  66.7063225  99.2145352  24.1501928
  67.8116585 100.1888124  23.8024914  61.9086492 101.5304775  18.9941702
  62.4593918 101.4021838  18.2218696  61.0697968 101.8299664  18.6436595
  69.2480609 100.2811773  22.4962425  69.2299085 101.1020654  22.0042694
  70.1700529 100.1565849  22.7212566  65.7053664  97.7955903  23.3385933
  66.2382000  97.0344191  23.1085241  65.1767745  97.5029555  24.0810087
  68.8723358  82.9015969  18.8679575  68.5287628  83.7917610  18.7918685
  69.2402321  82.7117626  18.0049160  66.4220752  87.7374281  12.4337248
  65.5662349  87.3481131  12.2542887  66.8347704  87.8166241  11.5737034
  67.9519899  85.2720624  16.8328808  67.4484694  85.2350759  16.0196613
  68.2450506  86.1813367  16.8925465  64.1962785  85.3559354  15.8394990
  65.0615782  85.1602162  15.4800879  64.2640294  85.1269705  16.7664347
  61.8025104  87.5861562  13.2111357  62.3768856  87.3636743  12.4784550
  62.3896086  87.6550256  13.9639958  64.1047772  84.4602810  11.9386426
  63.4512184  84.1451828  11.3143041  64.0628246  83.8378551  12.6646249
  67.3385512  90.9484744  16.2634074  66.4208073  91.1699691  16.1055762
  67.7545656  91.0231054  15.4045781  70.6711024  82.1609528  13.9697312
  70.9769901  81.3006891  13.6823228  71.3963629  82.7527148  13.7696306
  56.9635380  92.5640215  12.3578910  56.7659780  91.9709575  11.6329977
  56.4082044  92.2592425  13.0754849  64.9432104  92.4563321  14.4773504
  64.9980714  91.5037157  14.4015980  64.1323306  92.6122760  14.9614802
  62.8824464  91.0740381  12.2363882  62.0692329  91.3734551  12.6429075
  63.3783458  90.6796070  12.9538365  68.4798675  91.5382205  21.0678776
  68.8348063  91.7653678  21.9273242  69.1270807  91.8700582  20.4456032
  62.3738539  88.6458736  17.8525117  63.0137918  88.5047495  17.1548081
  61.5416069  88.3593250  17.4763719  59.3767155  88.6159061  12.6298104
  59.6373972  89.5304395  12.5207265  60.1984327  88.1483504  12.7794717
  60.8492080  90.0296818  19.7996929  61.5215134  89.8214181  19.1509578
  60.0221867  89.8318904  19.3602161  66.7517652  86.6558759  21.8162590
  66.1045567  87.3548709  21.7227066  67.5218668  87.0894903  22.1838838
  70.1596450  96.9207612  24.8913143  70.0081957  96.6918163  23.9743227
  70.1501130  97.8778213  24.9044488  66.9281787  94.4939524  19.8759409
  67.8573847  94.6450684  19.7028377  66.5072817  94.5823545  19.0208056
  65.7270118  98.5190189  17.6457947  65.5881204  98.1508973  18.5183885
  64.9384715  99.0337828  17.4741905  61.2519578  93.3039421  20.5599366
  61.1139375  92.5719660  21.1610905  62.1624501  93.2148322  20.2783554
  63.8801878  93.0159381  20.0483045  64.5901497  92.3752573  20.0069664
  63.8371186  93.2672276  20.9709226  71.8688657  99.9526734  22.9689625
  71.8101203  99.2685954  22.3020208  72.2708175 100.6945724  22.5170251
  62.5930812  90.0024599  21.8678685  62.0568169  89.5515337  22.5200281
  62.0047521  90.1370507  21.1249149  71.8706064  97.9166318  21.2003604
  70.9832843  97.5792240  21.3230003  72.4404615  97.1849349  21.4372370
  53.5235211  94.2490410  14.5246656  54.2106251  93.9352140  13.9367671
  53.3683340  95.1531774  14.2513907  58.3269933  89.1380606  18.9531679
  58.2428122  88.5306276  18.2182089  57.5052640  89.6289625  18.9541176
  68.4993647  87.6234170  14.3201875  68.9962347  86.8704132  14.0002945
  67.7280629  87.6598487  13.7545084  65.0828616  89.7651553  14.0473559
  64.7126404  89.2122593  14.7354465  65.5787709  89.1609686  13.4948559
  62.9117815 100.2249048  21.1428577  63.6127274 100.8585531  21.2957971
  62.4412930 100.5663779  20.3824216  70.9412642  84.5903763  16.4681233
  70.0275722  84.8207990  16.6363440  71.3705744  84.6742207  17.3195266
  70.7119101  92.7793655  18.9681127  70.0590551  93.0269563  18.3133580
  71.0899480  91.9657794  18.6343605  66.7606674  93.5213466  25.4547164
  66.0847311  93.4207596  26.1249540  67.5834307  93.3652680  25.9183162
  58.5085533  99.7585403  18.0759680  59.0938969  99.0129091  18.2087584
  58.3110371 100.0689360  18.9596344  53.1003187  92.3291003  16.7964123
  53.1387287  91.7954594  17.5901241  52.5943480  91.8026209  16.1775100
  60.4793950  87.1755544  20.2926665  60.5435276  88.0370375  19.8804063
  60.4161070  86.5629545  19.5599024  59.9546222  89.2478676  23.9399699
  60.5818261  88.8655753  24.5537224  59.0974141  89.0292878  24.3055392
  70.3540331  99.6541651  25.5453435  70.8980235 100.2671610  25.0508390
  69.7727176 100.2121230  26.0620448  56.7311765  91.0555105   9.8718054
  57.0265206  90.1465784   9.8185108  55.8299801  91.0342845   9.5499057
  60.2606012  89.1311102  15.8545603  59.5392598  89.7447070  15.7153076
  61.0499268  89.6668867  15.7762249  63.0632326  86.4665528  22.1286255
  63.5866727  86.7127825  22.8912564  62.8444659  87.2985563  21.7089392
  58.4599607  88.7369203   9.9957379  58.1312313  87.8566582   9.8132485
  58.8138977  88.6816872  10.8833769  64.2684871  87.4079223  19.8135925
  63.9281691  86.6087037  20.2156605  63.5623877  87.7080934  19.2412758
  64.9201342  84.4928536  18.2663248  65.7427412  84.0189014  18.1442138
  65.1639406  85.2719020  18.7661934  62.4439921  91.1847657  16.0755227
  62.2984502  91.4987960  16.9679508  61.9665125  91.8032557  15.5226125
  64.3036304  88.1750205  16.1236116  64.2897873  87.2791298  15.7868414
  65.0208732  88.1820868  16.7574402  66.1562435  88.6087545  18.1689244
  65.8980213  89.5304615  18.1673574  65.6247475  88.2117979  18.8589708
  56.9185583  93.7253001  19.0142888  56.3739051  94.5012809  19.1463162
  57.7964933  94.0723805  18.8562009  63.7073200  87.0564585  11.3923686
  63.8289111  86.1281231  11.5914574  63.4175242  87.0703271  10.4802002
  66.5764390  84.7419495  14.5290406  66.5986087  84.8058828  13.5742386
  66.9932449  83.9024004  14.7230912  57.7051605  92.8522897  21.9073045
  56.9633341  93.0005533  22.4937675  57.3844349  93.1131163  21.0439794
  65.6495268 102.3938875  21.7053435  65.9582394 102.1488022  22.5776134
  66.4470750 102.5985514  21.2172305  56.3516824  98.6574652  14.8972373
  55.5148732  98.2296827  14.7156374  56.3240469  98.8507096  15.8343164
  63.1914280  88.5696582  25.6013619  63.2402435  89.4458705  25.2191389
  63.7336794  88.0273975  25.0285262  73.6769125  99.1137705  24.8814756
  72.8864669  99.0961844  24.3419256  73.4402480  99.6525999  25.6363793
  73.7967000  95.9630172  22.1947485  73.8465005  95.7980179  23.1363007
  73.6880924  95.0957431  21.8045365  71.0870763  91.9461100  23.5106791
  71.9880625  91.8067565  23.2190789  71.1618737  92.1115555  24.4504969
  65.4213568  89.3227955  22.3559978  64.5516877  89.6161521  22.0842566
  65.6573048  89.9068400  23.0767241  75.2985197  98.3827113  22.4389506
  75.0070005  98.7457094  23.2752967  74.6857328  97.6694122  22.2602838
  73.5472385  93.5059728  20.9069564  74.0226507  93.6987374  20.0988416
  72.6237951  93.5618914  20.6612948  68.1252602  85.5407571  19.8725398
  68.6434546  86.2768598  19.5471887  67.7707735  85.8471565  20.7072157
  68.3765196  81.9607854  15.3926295  68.6566950  81.2931043  16.0186721
  69.1615803  82.1536950  14.8800959  72.2474054  90.3825488  19.1397870
  73.1991477  90.4823586  19.1610094  72.0777505  89.5903757  19.6495954
  70.2688434  87.4681071  19.3257271  69.6738366  87.7486084  18.6303759
  69.9838130  87.9574972  20.0974012  74.8756621  90.3942651  18.2998453
  74.3595669  89.6101108  18.1128382  75.7596569  90.0661368  18.4644972
  72.5367347  84.1383667  14.2594265  72.3392169  83.8298755  15.1437597
  73.1467053  84.8645306  14.3892195  66.4484155  96.5245407  25.7568030
  67.3687165  96.7024006  25.9508077  66.4133739  95.5801452  25.6047730
  55.6666320  91.7184000  14.6821305  55.3469105  90.8649309  14.3895679
  55.1199749  91.9332579  15.4379272  59.4446228  94.4346441  18.3990812
  59.6632238  95.3663549  18.4178845  59.8572002  94.0754416  19.1845615
  66.3650446  84.9414527  10.3866500  65.5551174  84.5961612  10.7621746
  67.0534863  84.6322071  10.9754112  68.2940994  84.0192574  12.0090797
  68.8472033  84.4388027  12.6680820  68.5311080  83.0928322  12.0513753
  64.3174093  90.0079647  27.7893561  64.2170820  90.9574004  27.7205652
  64.0995635  89.6797886  26.9169631  55.5354580  95.3386912  16.6514427
  54.8418052  94.9240865  16.1384381  56.2827571  95.3807448  16.0547846
  70.1223368  85.5298156  13.7190781  70.6223146  85.6414691  12.9105100
  70.7658975  85.2259209  14.3591590  64.1805363  93.4376786  26.6058622
  63.6972445  94.2377146  26.8122511  64.2666302  93.4484731  25.6526066
  57.4491323  95.2705166  14.5280442  57.4262011  95.3692853  13.5762325
  57.7591959  96.1170317  14.8497608  60.1078701  97.3281321  18.6427056
  61.0621954  97.2965263  18.5756988  59.9091224  96.8671945  19.4577282
  60.6978083  95.8982437  21.2097854  61.5170972  96.3926515  21.2332691
  60.9714891  94.9814405  21.1815421  55.9512997  90.2320571  21.9090051
  56.5971861  89.7219525  22.3977276  55.7430148  90.9689252  22.4833476
  68.4766389  97.3001418  27.4082191  69.3457549  97.4742070  27.0468826
  67.9973141  98.1195835  27.2857921  68.2868727  81.0903392  11.9159884
  67.5201123  80.5361879  12.0616566  68.6979432  81.1625261  12.7774035
  72.8491989 100.7868904  26.9995037  72.4558935 100.2335103  27.6742681
  73.6658129 101.0979483  27.3901554  75.7659950 102.2026784  24.5915293
  76.5069663 102.8033937  24.5119756  75.9977873 101.4604421  24.0333336
  70.7939977 104.5770594  23.9399699  71.4212016 104.1947671  24.5537224
  69.9367896 104.3584796  24.3055392  74.0308034 103.8988500  25.6013619
  74.0796189 104.7750623  25.2191389  74.5730548 103.3565893  25.0285262
  75.1567848 105.3371565  27.7893561  75.0564575 106.2865922  27.7205652
  74.9389390 105.0089804  26.9169631  66.7906752 105.5612488  21.9090051
  67.4365615 105.0511442  22.3977276  66.5823903 106.2981170  22.4833476
  71.1304243 102.7080105  26.0065065  71.9935704 102.3516910  26.2168390
  70.5569653 102.3694000  26.6940469  37.8359069  30.6728021  12.2698742
  38.3798973  31.2857979  11.7753696  37.2545913  31.2307599  12.7865755
  41.1587863  30.1324075  11.6060063  40.3683407  30.1148214  11.0664562
  40.9221218  30.6712369  12.3609099  42.7803935  29.4013483   9.1634813
  42.4888743  29.7643463   9.9998274  42.1676066  28.6880491   8.9848145
  35.9585127  28.3187788  14.1327498  36.8276287  28.4928440  13.7714133
  35.4791879  29.1382205  14.0103227  47.6177603  40.0276414   3.5372773
  48.2556013  39.9083161   2.8336113  47.4998446  40.9757258   3.5960725
  44.4267309  39.9803842   3.4734297  44.0885821  39.8644906   2.5854832
  45.2957077  39.5795007   3.4535303  44.9087092  41.1338694   9.4320503
  44.8975733  40.7391492   8.5601007  45.0707732  40.4004766  10.0254274
  41.6294353  43.9175805   8.3799687  41.3384219  44.8221436   8.2646353
  42.2651338  43.9592333   9.0943756  42.5550560  41.2952654   4.9701046
  43.1514132  41.0708676   4.2558009  42.6125532  40.5537399   5.5726494
  52.5727299  37.6903101   1.5158959  53.3052471  37.1202318   1.7496789
  51.8166654  37.3024701   1.9565465  50.0952719  31.4024675   5.9753568
  49.7636044  32.2720086   5.7514783  49.4998332  31.0860959   6.6547598
  46.5884238  43.6037221   5.3749481  46.2884962  44.5062260   5.2665288
  46.2435298  43.3369404   6.2270633  49.9881382  36.1219761   3.0546918
  49.0798260  36.0535169   2.7605679  49.9368978  36.5991706   3.8828743
  41.5705018  50.3681541  -1.6579552  41.4929048  51.3189366  -1.5791071
  40.9666662  50.0227414  -1.0004625  44.0622248  37.5409407  10.9981815
  43.2855582  38.1003327  10.9884680  44.7012811  38.0266190  11.5196685
  51.8543029  34.3236199   4.8324792  51.2117409  34.6168733   4.1864586
  51.3497957  34.2089120   5.6377988  42.3168620  40.3494860  10.5599782
  43.0583305  40.8879904  10.2834606  41.6105606  40.9761149  10.7171334
  47.7923960  42.4924000   9.1571944  48.2007316  42.0506411   8.4126576
  47.0701221  41.9176628   9.4106136  44.1455030  37.4296607   6.5305501
  44.9916225  37.8536021   6.6740150  44.0853668  36.7730232   7.2244064
  48.1152775  43.0525191   2.9124232  47.4861637  43.2170905   2.2100300
  47.7278437  43.4666801   3.6835197  51.9942007  43.9879629   0.2668596
  51.3093045  44.3678530  -0.2834370  52.0785856  44.5974956   1.0000544
  47.2954475  35.0900976   8.1886674  47.0515407  35.8443036   7.6520950
  47.5714406  35.4686323   9.0233921  49.2492938  41.6339588   6.8663940
  49.4609833  42.2771348   6.1898321  49.2022686  40.8001904   6.3985870
  40.5604818  42.3371081   3.1154081  41.1306175  42.7658349   2.4771565
  41.1512929  42.0553665   3.8138267  41.0529984  37.5034508  11.3615092
  40.4228645  38.1850789  11.5950489  40.9466072  37.3917590  10.4168230
  50.3638766  44.5111543   5.0386297  51.1856210  44.1091731   4.7568979
  50.3601169  44.4079778   5.9902413  44.1295370  44.0595587   7.1947008
  44.1939802  44.5215994   8.0305179  43.4206293  43.4292952   7.3229317
  58.4544759  40.8550292   1.3871269  57.7008468  40.2857690   1.2315273
  58.5892300  40.8212956   2.3341903  40.3310727  31.8055274  13.7240343
  39.9377672  31.2521473  14.3987987  41.1476867  32.1165852  14.1146861
  43.2478688  33.2213153  11.3160600  43.9888401  33.8220306  11.2365062
  43.4796611  32.4790791  10.7578642  38.3920026  38.4069520   9.5938829
  38.2773541  37.5054778   9.8945928  37.5364544  38.6533217   9.2423646
  45.4711864  46.3487261  11.1926330  45.0275718  45.5623639  10.8747235
  46.1329077  46.5366411  10.5270221  40.2298985  47.8783062   5.7187009
  40.7806410  47.7500126   4.9464002  39.3910461  48.1777951   5.3681901
  47.5693102  46.6290061   9.2207731  47.5511577  47.4498942   8.7288000
  48.4913022  46.5044136   9.4457872  44.0266156  44.1434190  10.0631240
  44.5594493  43.3822478   9.8330548  43.4980237  43.8507842  10.8055394
  50.3711715  41.4669203   2.6917098  49.7135389  42.1568464   2.7797227
  51.1752114  41.8565635   3.0351084  49.1817173  39.8213576   0.7421040
  49.6949055  40.4543568   1.2442749  49.8318397  39.2214771   0.3764400
  49.9478970  44.8019577  -1.1299818  49.4941297  43.9610487  -1.0734627
  49.3172936  45.4380976  -0.7925037  48.3911909  46.6396074  -0.1949999
  48.6834883  47.2001131  -0.9137634  48.9010529  46.9324635   0.5603160
  43.3545534  47.4176425   0.8943454  43.3121713  47.6437271  -0.0348014
  44.2708233  47.1839800   1.0429255  46.8011168  37.8860492   7.7924083
  47.1560555  38.1131966   8.6518549  47.4483299  38.2178869   7.1701338
  52.5308905  41.0078928  -1.5026588  52.3926803  41.1980524  -2.4305399
  52.1745123  41.7698311  -1.0458537  52.5578284  43.0755455   3.5084683
  52.9914791  42.9830744   4.3567737  53.2709865  43.0512956   2.8704699
  46.2906179  46.6757549   5.0417784  46.3443201  47.2448486   5.8095500
  45.4220961  46.8459435   4.6771821  39.1704573  36.3775106   6.5242235
  39.8427626  36.1692468   5.8754884  38.3434359  36.1797192   6.0847468
  53.4193834  43.1179156   6.0417569  53.6129724  44.0224967   6.2876844
  53.3194452  42.6586575   6.8756154  45.0730145  33.0037047   8.5407896
  44.4258060  33.7026996   8.4472373  45.8431160  33.4373191   8.9084144
  48.4808943  43.2685899  11.6158449  48.3294449  43.0396450  10.6988533
  48.4713622  44.2256500  11.6289794  45.2494279  40.8417812   6.6004716
  46.1786339  40.9928971   6.4273683  44.8285309  40.9301832   5.7453362
  44.0482611  44.8668476   4.3703254  43.9093696  44.4987260   5.2429192
  43.2597207  45.3816115   4.1987211  44.6430763  49.9677572  -4.2871210
  44.8182518  49.4965616  -3.4725587  43.9563551  50.5943339  -4.0589949
  45.5987826  44.2450079   1.7592091  45.2637658  44.2050849   2.6549741
  45.0991772  43.5794795   1.2862502  39.5732070  39.6517709   7.2844672
  39.4351868  38.9197948   7.8856212  40.4836993  39.5626609   7.0028860
  42.2014370  39.3637668   6.7728352  42.9113989  38.7230860   6.7314971
  42.1583679  39.6150563   7.6954533  50.1901149  46.3005021   9.6934931
  50.1313695  45.6164241   9.0265514  50.5920668  47.0424011   9.2415557
  40.9143304  36.3502886   8.5923992  40.3780661  35.8993624   9.2445588
  40.3260013  36.4848795   7.8494456  39.2091848  53.1166935   2.4868650
  39.4488446  53.7485459   3.1647669  38.3661044  52.7654975   2.7734009
  50.1918556  44.2644605   7.9248911  49.3045335  43.9270527   8.0475310
  50.7617108  43.5327637   8.1617676  43.7219710  48.9246058   4.8910154
  43.6489881  49.7301029   5.4029459  43.2797103  49.1238023   4.0658176
  43.5109489  48.1617828  -1.5987024  42.7277011  48.7039508  -1.5048800
  44.2102235  48.6791807  -1.1992783  54.6735897  39.6752823   2.6865473
  54.6625773  40.5577538   2.3159406  53.8053276  39.3224373   2.4920010
  46.1818393  48.8232892   7.0468313  46.8946366  49.4580356   6.9744214
  45.6908422  48.9196758   6.2308315  41.2330307  46.5727335   7.8673884
  41.9339766  47.2063818   8.0203278  40.7625422  46.9142067   7.1069523
  49.0331593  39.1271943   5.6926434  48.3803043  39.3747850   5.0378887
  49.4111973  38.3136081   5.3588911  45.9938767  49.1631636  -0.2045396
  46.1761161  48.3453292   0.2582357  46.8171753  49.3799328  -0.6420506
  46.3280932  48.0899821  -2.9430347  46.8568699  47.5792275  -3.5560185
  46.5909152  47.7742351  -2.0784814  45.0819166  39.8691754  12.1792471
  44.4059803  39.7685883  12.8494846  45.9046800  39.7130967  12.6428468
  36.8298025  46.1063690   4.8004986  37.4151462  45.3607378   4.9332891
  36.6322863  46.4167647   5.6841650  39.6836680  49.1414938  -0.1832571
  39.0147055  49.6261065  -0.6668531  39.5449550  49.3884158   0.7310807
  43.8241949  51.1758681   6.4150087  44.3760257  51.3390303   7.1799172
  44.1648142  51.7663119   5.7430112  38.2758715  35.5956963  10.6645006
  38.9030753  35.2134041  11.2782530  37.4186633  35.3771165  11.0300699
  48.6752823  46.0019939  12.2698742  49.2192727  46.6149897  11.7753696
  48.0939668  46.5599517  12.7865755  46.9610336  49.1240657   3.4013769
  46.8361475  48.3230396   2.8924715  47.6189427  49.6186850   2.9127739
  49.0245244  46.9249677   5.0293319  48.0775580  46.8055028   4.9571646
  49.3728018  46.0372175   5.1119581  41.3844818  32.8143816   8.8531561
  41.9079220  33.0606112   9.6157871  41.1657151  33.6463850   8.4334699
  46.0291678  46.7202393   1.2297672  45.8816640  45.7919100   1.4105242
  46.8545171  46.7422484   0.7454747  49.6325800  47.5430952   2.3162544
  50.5572347  47.3373813   2.1786995  49.4641103  47.2947353   3.2251886
  42.5897363  33.7557511   6.5381232  42.2494183  32.9565324   6.9401912
  41.8836369  34.0559222   5.9658065  44.4774927  34.9565832   4.8934550
  44.2192705  35.8782903   4.8918881  43.9459967  34.5596267   5.5835015
  49.4221116  48.0616619  -2.3275364  49.5957993  47.4963042  -3.0801512
  49.9150007  48.8617514  -2.5095874  35.2398076  40.0731288   5.7388195
  34.6951544  40.8491096   5.8708469  36.1177425  40.4202093   5.5807316
  55.2760507  40.8253042  -0.7085064  55.7191653  40.0760367  -1.1065941
  54.3987017  40.8163178  -1.0911332  50.4096288  47.3783383  -5.2278466
  51.1047193  47.9990076  -5.0091151  50.7519438  46.5278735  -4.9526088
  36.0264097  39.2001184   8.6318351  35.2845833  39.3483820   9.2182982
  35.7056842  39.4609450   7.7685101  52.3087711  44.8283089  -3.6991135
  52.8339035  45.1670362  -4.4241815  52.2210064  43.8930104  -3.8828001
  43.9707760  48.7417163   8.4298741  44.2794887  48.4966309   9.3021441
  44.7683242  48.9463801   7.9417612  43.9928372  50.8955072   0.6604118
  43.5533362  50.4031451   1.3536975  44.7436489  50.3528040   0.4196193
  41.4402244  46.4393081   2.7326420  40.8182254  45.7763786   2.4328648
  42.1107111  46.4654213   2.0500067  41.5126772  34.9174869  12.3258926
  41.5614927  35.7936992  11.9436695  42.0549286  34.3752262  11.7530569
  51.9981617  45.4615993  11.6060063  51.2077161  45.4440132  11.0664562
  51.7614972  46.0004286  12.3609099  52.1179492  42.3108459   8.9192791
  52.1677497  42.1458466   9.8608314  52.0093416  41.4435718   8.5290672
  49.4083255  38.2939387  10.2352098  50.3093118  38.1545852   9.9436096
  49.4831229  38.4593842  11.1750275  43.7426060  35.6706242   9.0805284
  42.8729370  35.9639808   8.8087873  43.9785541  36.2546687   9.8012548
  53.6197689  44.7305401   9.1634813  53.3282498  45.0935381   9.9998274
  53.0069821  44.0172409   8.9848145  54.8193372  42.2958280   1.6837383
  55.6540263  42.7348084   1.8474943  54.9552500  41.8196934   0.8645629
  51.8684878  39.8538015   7.6314871  52.3438999  40.0465661   6.8233722
  50.9450443  39.9097201   7.3858255  46.4465094  31.8885859   6.5970705
  46.9647038  32.6246886   6.2717193  46.0920227  32.1949852   7.4317464
  50.5686547  36.7303775   5.8643176  51.5203969  36.8301873   5.8855401
  50.3989997  35.9382044   6.3741261  48.5900926  33.8159358   6.0502577
  47.9950858  34.0964371   5.3549066  48.3050623  34.3053259   6.8219318
  53.0474624  39.9509895   4.9785476  53.0150944  39.0125896   5.1645160
  53.6575248  40.0293932   4.2451301  53.1969113  36.7420938   5.0243759
  52.6808161  35.9579395   4.8373688  54.0809061  36.4139655   5.1890279
  58.8651174  41.0125902   4.1191513  59.5954563  40.7511190   4.6799216
  58.2558120  40.2754624   4.1593581  56.9466471  39.1533764   4.7165964
  56.2199635  39.0189729   4.1082456  56.5313758  39.4610593   5.5222682
  44.7696648  42.8723694  12.4813337  45.6899657  43.0502293  12.6753384
  44.7346231  41.9279739  12.3293036  37.7658720  40.7824729   5.1236118
  37.9844730  41.7141837   5.1424152  38.1784494  40.4232703   5.9090922
  42.6386586  36.3557934  14.5138867  42.5383313  37.3052291  14.4450958
  42.4208128  36.0276173  13.6414937  42.5017856  39.7855073  13.3303929
  42.0184937  40.5855433  13.5367818  42.5878795  39.7963018  12.3771373
  38.4291193  43.6759608   5.3672363  39.3834447  43.6443550   5.3002294
  38.2303717  43.2150232   6.1822589  39.0190575  42.2460724   7.9343160
  39.8383464  42.7404803   7.9577998  39.2927383  41.3292692   7.9060728
  54.5644266  35.3745617   2.0699396  55.1588757  35.1341353   1.3592704
  54.6370850  34.6552747   2.6972932  36.7841422  49.2179228   2.3842561
  36.6495890  48.4579628   1.8180559  36.3673484  49.9420127   1.9171349
  56.8715339  38.6811817   0.8442817  56.3114897  38.7505007   1.6174379
  56.2658842  38.5052802   0.1242313  39.9410548  50.1148545   2.5961003
  39.8242932  51.0593977   2.4939693  39.1202994  49.8122106   2.9846802
  34.2725490  36.5798858   8.6335357  34.9184353  36.0697812   9.1222583
  34.0642641  37.3167540   9.2078783  46.7978882  43.6479705  14.1327498
  47.6670041  43.8220358  13.7714133  46.3185633  44.4674122  14.0103227
  40.9665062  50.7676806   5.8116932  41.8692309  50.8000417   6.1283427
  40.7402432  49.8377257   5.8263267  42.7218664  49.5207793   2.4727010
  41.7714295  49.5209655   2.3591383  43.0251150  48.7740528   1.9563045
  38.6122981  33.7266475  12.7310372  39.4754442  33.3703280  12.9413696
  38.0388391  33.3880370  13.4185776  58.4571357  55.3568331   3.5372773
  59.0949767  55.2375079   2.8336113  58.3392200  56.3049175   3.5960725
  55.2661064  55.3095759   3.4734297  54.9279575  55.1936824   2.5854832
  56.1350832  54.9086925   3.4535303  51.1247879  57.1631236  -0.5368812
  50.5612745  57.0721173  -1.3052524  51.0100274  56.3431140  -0.0566319
  55.7480847  56.4630611   9.4320503  55.7369487  56.0683409   8.5601007
  55.9101486  55.7296684  10.0254274  48.6712311  58.6582427   2.3015409
  49.4633603  58.3173252   1.8861708  48.9108962  58.7677403   3.2217562
  56.7047438  60.8302204  -5.2254347  56.0535418  61.4156284  -5.6120333
  57.4991801  61.3608398  -5.1659309  50.6303065  57.9191341  -4.8267212
  51.4033941  57.3720328  -4.9654337  50.9828464  58.7835590  -4.6152751
  52.4688108  59.2467723   8.3799687  52.1777974  60.1513354   8.2646353
  53.1045092  59.2884251   9.0943756  53.3944315  56.6244572   4.9701046
  53.9907887  56.4000594   4.2558009  53.4519286  55.8829317   5.5726494
  52.9669343  54.0784007  -7.1948763  53.2194864  53.5565528  -7.9565300
  52.0293902  53.9150152  -7.0922079  58.0112626  53.0819785   0.6125981
  58.7975715  52.6639208   0.2616398  58.2751330  53.9865877   0.7807629
  58.1822703  58.5192636  -4.6885363  57.5468536  58.5927262  -3.9764458
  57.8520110  59.1086234  -5.3666283  63.4121053  53.0195018   1.5158959
  64.1446225  52.4494235   1.7496789  62.6560409  52.6316619   1.9565465
  52.6865632  55.9812113  -4.9924388  52.5701890  55.3057016  -4.3243303
  52.7967892  55.4944487  -5.8092235  55.0297173  55.4422260  -1.2877698
  54.6655380  54.9152881  -0.5764777  55.8864289  55.0520729  -1.4611213
  60.9346473  46.7316593   5.9753568  60.6029798  47.6012003   5.7514783
  60.3392087  46.4152877   6.6547598  54.6702660  50.4712160  -6.2916350
  54.8377062  51.3392396  -5.9245879  54.4799829  50.6339441  -7.2155061
  57.4277993  58.9329139   5.3749481  57.1278716  59.8354177   5.2665288
  57.0829052  58.6661322   6.2270633  50.8790474  55.3842935   1.4086185
  49.9540971  55.2519149   1.6163877  51.1274888  56.1637155   1.9056127
  60.8275137  51.4511679   3.0546918  59.9192014  51.3827087   2.7605679
  60.7762733  51.9283624   3.8828743  54.6491881  52.9269817  -5.3069683
  54.5291506  53.3726868  -4.4684203  53.9544469  53.2755135  -5.8656145
  48.2399285  55.0276209   2.2429974  48.3691667  55.2810688   3.1569386
  47.5596737  55.6203917   1.9234629  52.4098773  65.6973459  -1.6579552
  52.3322802  66.6481284  -1.5791071  51.8060416  65.3519331  -1.0004625
  54.9016003  52.8701324  10.9981815  54.1249337  53.4295244  10.9884680
  55.5406566  53.3558107  11.5196685  62.6936783  49.6528117   4.8324792
  62.0511163  49.9460650   4.1864586  62.1891712  49.5381037   5.6377988
  60.3476947  53.3991290  -4.4789349  61.2594803  53.6318677  -4.6541651
  59.8386594  53.9828334  -5.0414270  53.1562375  55.6786778  10.5599782
  53.8977059  56.2171822  10.2834606  52.4499360  56.3053066  10.7171334
  58.6317714  57.8215918   9.1571944  59.0401071  57.3798329   8.4126576
  57.9094976  57.2468546   9.4106136  54.9848785  52.7588525   6.5305501
  55.8309980  53.1827938   6.6740150  54.9247422  52.1022149   7.2244064
  58.9546529  58.3817109   2.9124232  58.3255392  58.5462823   2.2100300
  58.5672191  58.7958718   3.6835197  62.8335761  59.3171547   0.2668596
  62.1486799  59.6970448  -0.2834370  62.9179610  59.9266873   1.0000544
  58.1348230  50.4192893   8.1886674  57.8909162  51.1734954   7.6520950
  58.4108160  50.7978241   9.0233921  60.0886693  56.9631506   6.8663940
  60.3003588  57.6063266   6.1898321  60.0416441  56.1293822   6.3985870
  57.6912922  49.5749326   3.7700512  56.8297401  49.8730580   4.0617249
  57.7175356  49.7919725   2.8381545  54.5074491  58.1191517   0.1774318
  54.9712837  58.3979220  -0.6121060  54.2431289  57.2174961  -0.0052592
  51.3998572  57.6662998   3.1154081  51.9699929  58.0950267   2.4771565
  51.9906684  57.3845583   3.8138267  53.4443377  54.2414669  -3.0136117
  54.1467420  54.6935713  -2.5462191  53.1124006  53.5998488  -2.3856224
  51.8923739  52.8326426  11.3615092  51.2622399  53.5142707  11.5950489
  51.7859826  52.7209507  10.4168230  47.1868711  52.4998222   2.2881016
  46.3967765  52.7555750   1.8121127  47.6779958  53.3146560   2.3933057
  61.2032521  59.8403461   5.0386297  62.0249964  59.4383648   4.7568979
  61.1994923  59.7371695   5.9902413  49.1383456  52.8642801  -0.7535507
  48.3414620  52.9761495  -0.2352011  48.9109049  53.2029453  -1.6194616
  54.9689124  59.3887504   7.1947008  55.0333557  59.8507912   8.0305179
  54.2600048  58.7584869   7.3229317  45.4706414  52.7528712   4.7196007
  45.7214452  53.6375722   4.9853583  46.0065962  52.5733314   3.9471099
  69.2938514  56.1842210   1.3871269  68.5402222  55.6149608   1.2315273
  69.4286055  56.1504874   2.3341903  54.6837142  61.0555612  -2.9374012
  54.5482816  61.9007148  -2.5089164  55.2246954  61.2574889  -3.7008078
  51.1704481  47.1347192  13.7240343  50.7771427  46.5813390  14.3987987
  51.9870622  47.4457770  14.1146861  48.1366539  58.5731050  -2.3646087
  48.6491060  59.3674300  -2.2140522  48.7889252  57.8757340  -2.4312486
  49.9461424  61.6896806  -0.2823334  50.1228052  62.6114771  -0.4702350
  50.7418257  61.3755225   0.1471046  54.0872442  48.5505071  11.3160600
  54.8282156  49.1512224  11.2365062  54.3190365  47.8082709  10.7578642
  49.2313780  53.7361438   9.5938829  49.1167295  52.8346695   9.8945928
  48.3758298  53.9825135   9.2423646  56.3105618  61.6779178  11.1926330
  55.8669472  60.8915557  10.8747235  56.9722832  61.8658329  10.5270221
  51.0692739  63.2074980   5.7187009  51.6200164  63.0792043   4.9464002
  50.2304215  63.5069869   5.3681901  58.4086856  61.9581978   9.2207731
  58.3905331  62.7790859   8.7288000  59.3306776  61.8336053   9.4457872
  54.8659910  59.4726108  10.0631240  55.3988247  58.7114396   9.8330548
  54.3373991  59.1799760  10.8055394  58.0329605  44.5786174   5.5924881
  57.6893875  45.4687815   5.5163992  58.4008568  44.3887831   4.7294466
  46.1015456  56.9019704  -1.5886516  46.9390678  57.3116713  -1.8052809
  46.2793724  55.9619146  -1.6186323  57.9979888  54.5694785  -5.9002683
  57.4826511  55.3399389  -5.6614296  57.7257196  53.8959921  -5.2769622
  55.5826999  49.4144486  -0.8417445  54.7268595  49.0251336  -1.0211806
  55.9953951  49.4936446  -1.7017660  57.1126146  46.9490829   3.5574115
  56.6090941  46.9120964   2.7441920  57.4056752  47.8583572   3.6170771
  53.3569032  47.0329559   2.5640296  54.2222028  46.8372367   2.2046186
  53.4246540  46.8039910   3.4909653  62.9714162  57.3227139  -3.9649510
  62.1943605  56.9838299  -4.4094348  63.6505643  57.3279763  -4.6394545
  57.7866191  52.4421877  -4.0742902  57.4816327  52.7568026  -3.2232759
  58.7396633  52.5203297  -4.0315569  56.2312623  58.6012100  -2.4249948
  55.7033985  57.8664860  -2.7376711  55.7300126  59.3786777  -2.6709980
  61.2105469  56.7961121   2.6917098  60.5529143  57.4860382   2.7797227
  62.0145868  57.1857553   3.0351084  50.9631351  49.2631767  -0.0643337
  51.5375102  49.0406948  -0.7970144  51.5502333  49.3320461   0.6885264
  60.0210928  55.1505493   0.7421040  60.5342810  55.7835485   1.2442749
  60.6712152  54.5506689   0.3764400  51.2900938  51.2936228  -6.0447452
  50.4538250  51.6310914  -5.7238177  51.1505707  51.1585207  -6.9820315
  53.2654018  46.1373015  -1.3368267  52.6118431  45.8222033  -1.9611653
  53.2234492  45.5148756  -0.6108444  54.3765223  56.4192310  -9.4214975
  53.4692285  56.1881564  -9.2223826  54.8736255  55.6229930  -9.2340994
  56.4991759  52.6254949   2.9879380  55.5814320  52.8469896   2.8301068
  56.9151902  52.7001259   2.1291088  57.2826806  54.0246365  -1.8817939
  58.0298625  54.5367762  -2.1910817  57.5518396  53.7030417  -1.0213546
  55.5553457  56.5204905  -4.8990985  54.6464676  56.2363938  -4.8018515
  55.5848540  56.9403984  -5.7587678  60.7872724  60.1311495  -1.1299818
  60.3335051  59.2902405  -1.0734627  60.1566691  60.7672893  -0.7925037
  59.7305644  51.0603481   0.1000850  58.9928400  50.5480867   0.4311092
  59.9832417  50.6203862  -0.7115873  59.2305663  61.9687992  -0.1949999
  59.5228638  62.5293049  -0.9137634  59.7404284  62.2616553   0.5603160
  59.8317271  43.8379733   0.6942619  60.1376148  42.9777096   0.4068534
  60.5569876  44.4297353   0.4941613  46.1241627  54.2410419  -0.9175783
  45.9266027  53.6479780  -1.6424716  45.5688291  53.9362630  -0.1999844
  54.1038351  54.1333526   1.2018810  54.1586960  53.1807362   1.1261287
  53.2929553  54.2892965   1.6860109  55.2529544  58.0613649  -7.5602907
  54.8148974  57.3449508  -8.0197269  55.9939985  58.2889764  -8.1217815
  52.0430711  52.7510586  -1.0390811  51.2298576  53.0504756  -0.6325619
  52.5389705  52.3566274  -0.3216329  54.1939288  62.7468343   0.8943454
  54.1515467  62.9729189  -0.0348014  55.1101987  62.5131717   1.0429255
  57.6404922  53.2152410   7.7924083  57.9954310  53.4423883   8.6518549
  58.2877053  53.5470787   7.1701338  63.3702659  56.3370846  -1.5026588
  63.2320558  56.5272442  -2.4305399  63.0138878  57.0990229  -1.0458537
  51.5344785  50.3228941   4.5770424  52.1744165  50.1817700   3.8793387
  50.7022316  50.0363455   4.2009026  63.3972039  58.4047373   3.5084683
  63.8308545  58.3122662   4.3567737  64.1103619  58.3804874   2.8704699
  52.3105089  59.6231372   0.6905416  53.1045688  59.1281692   0.4887991
  51.5996782  59.0949235   0.3273122  57.1299934  62.0049467   5.0417784
  57.1836956  62.5740403   5.8095500  56.2614715  62.1751352   4.6771821
  48.6187853  53.7674453  -3.2334831  47.6885441  53.7058909  -3.0164869
  48.7145325  53.2450406  -4.0298190  48.5373402  50.2929266  -0.6456589
  48.7980219  51.2074599  -0.7547429  49.3590574  49.8253709  -0.4959976
  50.0098327  51.7067023   6.5242235  50.6821380  51.4984386   5.8754884
  49.1828114  51.5089109   6.0847468  64.2587588  58.4471074   6.0417569
  64.4523478  59.3516884   6.2876844  64.1588207  57.9878493   6.8756154
  55.9123899  48.3328964   8.5407896  55.2651814  49.0318914   8.4472373
  56.6824914  48.7665108   8.9084144  59.3202697  58.5977816  11.6158449
  59.1688203  58.3688368  10.6988533  59.3107376  59.5548418  11.6289794
  56.0888033  56.1709729   6.6004716  57.0180093  56.3220889   6.4273683
  55.6679063  56.2593750   5.7453362  54.8876365  60.1960394   4.3703254
  54.7487451  59.8279178   5.2429192  54.0990961  60.7108033   4.1987211
  55.4824517  65.2969490  -4.2871210  55.6576273  64.8257533  -3.4725587
  54.7957305  65.9235256  -4.0589949  56.4381580  59.5741996   1.7592091
  56.1031413  59.5342766   2.6549741  55.9385526  58.9086712   1.2862502
  50.4125824  54.9809626   7.2844672  50.2745622  54.2489865   7.8856212
  51.3230748  54.8918526   7.0028860  59.3740772  56.9198031  -7.9670849
  58.7569943  56.1944859  -8.0637796  58.9057260  57.6807391  -8.3103775
  53.0408125  54.6929586   6.7728352  53.7507744  54.0522778   6.7314971
  52.9977433  54.9442481   7.6954533  61.0294904  61.6296939   9.6934931
  60.9707450  60.9456159   9.0265514  61.4314422  62.3715929   9.2415557
  51.7537059  51.6794804   8.5923992  51.2174416  51.2285542   9.2445588
  51.1653767  51.8140712   7.8494456  50.0485602  68.4458853   2.4868650
  50.2882201  69.0777377   3.1647669  49.2054799  68.0946893   2.7734009
  61.0312311  59.5936523   7.9248911  60.1439090  59.2562445   8.0475310
  61.6010862  58.8619554   8.1617676  42.6841458  55.9260615   1.2491962
  43.3712498  55.6122345   0.6612978  42.5289587  56.8301979   0.9759214
  47.4876180  50.8150811   5.6776986  47.4034369  50.2076481   4.9427396
  46.6658887  51.3059830   5.6786482  54.5613464  64.2537975   4.8910154
  54.4883636  65.0592947   5.4029459  54.1190857  64.4529941   4.0658176
  54.3503244  63.4909745  -1.5987024  53.5670766  64.0331426  -1.5048800
  55.0495989  64.0083725  -1.1992783  57.6599894  49.3004375   1.0447181
  58.1568594  48.5474337   0.7248251  56.8886876  49.3368691   0.4790390
  65.5129651  55.0044740   2.6865473  65.5019528  55.8869456   2.3159406
  64.6447031  54.6516291   2.4920010  57.0212148  64.1524809   7.0468313
  57.7340120  64.7872274   6.9744214  56.5302176  64.2488675   6.2308315
  58.7429675  58.0576062  -1.3814395  57.8085953  58.1777524  -1.5509691
  58.9206343  57.1548529  -1.6454386  54.2434863  51.4421758   0.7718866
  53.8732650  50.8892798   1.4599771  54.7393955  50.8379891   0.2193866
  62.1302226  53.8993381  -0.8464361  62.5962678  54.7321373  -0.9204059
  62.5809727  53.4338363  -0.1419103  52.0724061  61.9019253   7.8673884
  52.7733521  62.5355736   8.0203278  51.6019176  62.2433984   7.1069523
  60.1978457  60.2437203  -3.8478209  60.4738301  60.1293797  -2.9384335
  59.3282956  59.8454687  -3.8866036  60.1018889  46.2673968   3.1926540
  59.1881969  46.4978195   3.3608747  60.5311990  46.3512412   4.0440572
  59.8725347  54.4563860   5.6926434  59.2196798  54.7039768   5.0378887
  60.2505727  53.6427998   5.3588911  56.8332521  64.4923553  -0.2045396
  57.0154916  63.6745209   0.2582357  57.6565507  64.7091246  -0.6420506
  57.1674687  63.4191739  -2.9430347  57.6962453  62.9084193  -3.5560185
  57.4302906  63.1034269  -2.0784814  55.9212920  55.1983671  12.1792471
  55.2453557  55.0977801  12.8494846  56.7440554  55.0422885  12.6428468
  47.6691779  61.4355608   4.8004986  48.2545216  60.6899296   4.9332891
  47.4716618  61.7459565   5.6841650  50.5230435  64.4706855  -0.1832571
  49.8540810  64.9552983  -0.6668531  50.3843304  64.7176076   0.7310807
  42.2609434  54.0061208   3.5209430  42.2993534  53.4724799   4.3146548
  41.7549727  53.4796414   2.9020407  54.6635703  66.5050599   6.4150087
  55.2154011  66.6682220   7.1799172  55.0041897  67.0955037   5.7430112
  49.6400196  48.8525749   7.0171972  49.7041523  49.7140579   6.6049370
  49.5767317  48.2399750   6.2844330  49.1152469  50.9248881  10.6645006
  49.7424508  50.5425958  11.2782530  48.2580388  50.7063083  11.0300699
  59.5146578  61.3311856  12.2698742  60.0586482  61.9441815  11.7753696
  58.9333422  61.8891435  12.7865755  45.8918012  52.7325310  -3.4036639
  46.1871453  51.8235989  -3.4569585  44.9906048  52.7113050  -3.7255637
  57.8004091  64.4532574   3.4013769  57.6755230  63.6522314   2.8924715
  58.4583182  64.9478768   2.9127739  49.4212259  50.8081307   2.5790910
  48.6998845  51.4217274   2.4398383  50.2105515  51.3439072   2.5007555
  59.8638999  62.2541594   5.0293319  58.9169334  62.1346946   4.9571646
  60.2121772  61.3664092   5.1119581  52.2238572  48.1435733   8.8531561
  52.7472974  48.3898030   9.6157871  52.0050906  48.9755768   8.4334699
  47.6205853  50.4139408  -3.2797314  47.2918560  49.5336787  -3.4622208
  47.9745224  50.3587077  -2.3920925  56.8685432  62.0494311   1.2297672
  56.7210395  61.1211018   1.4105242  57.6938926  62.0714401   0.7454747
  50.7347677  50.7012378  -2.9121836  51.0743749  51.2298299  -3.6343228
  51.1819797  51.0392784  -2.1363270  60.4719554  62.8722869   2.3162544
  61.3966102  62.6665731   2.1786995  60.3034857  62.6239270   3.2251886
  53.4291117  49.0849428   6.5381232  53.0887938  48.2857241   6.9401912
  52.7230124  49.3851139   5.9658065  54.0807589  46.1698741   4.9908555
  54.9033658  45.6959219   4.8687445  54.3245653  46.9489225   5.4907241
  52.7215824  49.1986999  -4.7128544  53.4424186  49.5768252  -5.2164827
  52.0981128  49.9175876  -4.6093566  56.8646947  49.9032148  -3.7770211
  57.0810561  50.7856786  -4.0781383  56.3841014  49.5118362  -4.5064569
  51.6046168  52.8617861   2.8000533  51.4590749  53.1758165   3.6924815
  51.1271372  53.4802762   2.2471432  53.4642551  49.8520409   2.8481423
  53.4504120  48.9561503   2.5113721  54.1814979  49.8591073   3.4819709
  55.3168682  50.2857750   4.8934550  55.0586459  51.2074820   4.8918881
  54.7853722  49.8888184   5.5835015  60.2614870  63.3908537  -2.3275364
  60.4351748  62.8254959  -3.0801512  60.7543762  64.1909432  -2.5095874
  46.0791830  55.4023206   5.7388195  45.5345298  56.1783014   5.8708469
  46.9571180  55.7494010   5.5807316  52.8679447  48.7334790  -1.8831007
  52.9895358  47.8051436  -1.6840119  52.5781489  48.7473476  -2.7952691
  55.7370637  46.4189700   1.2535713  55.7592334  46.4829033   0.2987693
  56.1538696  45.5794209   1.4476219  66.1154261  56.1544960  -0.7085064
  66.5585407  55.4052285  -1.1065941  65.2380772  56.1455096  -1.0911332
  46.8657852  54.5293102   8.6318351  46.1239588  54.6775737   9.2182982
  46.5450596  54.7901368   7.7685101  63.1481466  60.1575007  -3.6991135
  63.6732790  60.4962279  -4.4241815  63.0603818  59.2222022  -3.8828001
  54.8101515  64.0709080   8.4298741  55.1188641  63.8258227   9.3021441
  55.6076997  64.2755719   7.9417612  54.8322127  66.2246990   0.6604118
  54.3927117  65.7323369   1.3536975  55.5830244  65.6819958   0.4196193
  47.3114466  62.4158531   0.6628746  48.1372486  62.1162303   0.2827390
  46.9608518  61.6466153   1.1118535  52.2795999  61.7684999   2.7326420
  51.6576008  61.1055704   2.4328648  52.9500866  61.7946131   2.0500067
  45.5123071  60.3344857   1.6217680  44.6754979  59.9067032   1.4401681
  45.4846716  60.5277301   2.5588471  52.3520526  50.2466787  12.3258926
  52.4008682  51.1228910  11.9436695  52.8943040  49.7044180  11.7530569
  62.8375372  60.7907910  11.6060063  62.0470916  60.7732049  11.0664562
  62.6008727  61.3296204  12.3609099  62.9573247  57.6400377   8.9192791
  63.0071252  57.4750384   9.8608314  62.8487170  56.7727636   8.5290672
  51.8409506  60.3188922  -3.7915120  51.9897626  61.0024387  -4.4448447
  52.6475949  60.2994012  -3.2765664  60.2477009  53.6231305  10.2352098
  61.1486872  53.4837770   9.9436096  60.3224984  53.7885760  11.1750275
  54.5819815  50.9998159   9.0805284  53.7123124  51.2931726   8.8087873
  54.8179295  51.5838604   9.8012548  64.4591444  60.0597318   9.1634813
  64.1676252  60.4227299   9.9998274  63.8463575  59.3464327   8.9848145
  65.6587126  57.6250198   1.6837383  66.4934018  58.0640002   1.8474943
  65.7946255  57.1488851   0.8645629  62.7078632  55.1829933   7.6314871
  63.1832754  55.3757579   6.8233722  61.7844197  55.2389119   7.3858255
  49.5962139  56.3454100  -2.7854051  49.3508181  55.4416430  -2.5873841
  49.7658053  56.3471250  -3.7274573  57.2858849  47.2177776   6.5970705
  57.8040792  47.9538803   6.2717193  56.9313981  47.5241770   7.4317464
  48.8657786  52.0782458  -5.2867889  48.1727031  52.1526813  -5.9427853
  48.6209538  51.3142801  -4.7646372  57.5371443  43.6378059   2.1171601
  57.8173196  42.9701248   2.7432028  58.3222050  43.8307155   1.6046265
  55.3404911  62.8137053  -6.3203372  54.7678878  63.4327240  -6.7732900
  55.9137705  63.3636415  -5.7863450  61.4080301  52.0595693   5.8643176
  62.3597724  52.1593791   5.8855401  61.2383751  51.2673961   6.3741261
  59.4294681  49.1451276   6.0502577  58.8344613  49.4256289   5.3549066
  59.1444377  49.6345177   6.8219318  58.5602171  63.0974203  -5.1894790
  59.4932844  63.0319765  -4.9861915  58.4725384  63.9330470  -5.6480257
  63.8868379  55.2801813   4.9785476  63.8544699  54.3417813   5.1645160
  64.4969002  55.3585849   4.2451301  55.7251710  54.1497866  -8.9787320
  56.6710814  54.0204074  -8.9098902  55.3465955  53.4112528  -8.5017892
  64.0362867  52.0712856   5.0243759  63.5201916  51.2871313   4.8373688
  64.9202816  51.7431573   5.1890279  61.6973594  45.8153872   0.9839572
  61.4998415  45.5068960   1.8682904  62.3073300  46.5415511   1.1137502
  69.7044929  56.3417819   4.1191513  70.4348317  56.0803108   4.6799216
  69.0951874  55.6046541   4.1593581  67.7860226  54.4825682   4.7165964
  67.0593389  54.3481647   4.1082456  67.3707513  54.7902511   5.5222682
  55.6090402  58.2015612  12.4813337  56.5293412  58.3794211  12.6753384
  55.5739985  57.2571657  12.3293036  44.8272567  53.3954205   1.4066612
  44.5075352  52.5419514   1.1140986  44.2805995  53.6102784   2.1624579
  48.6052475  56.1116646   5.1236118  48.8238485  57.0433754   5.1424152
  49.0178249  55.7524621   5.9090922  55.5256693  46.6184732  -2.8888193
  54.7157421  46.2731817  -2.5132947  56.2141110  46.3092275  -2.3000582
  57.4547241  45.6962779  -1.2663897  58.0078279  46.1158232  -0.6073874
  57.6917327  44.7698527  -1.2240941  53.4780340  51.6849852  14.5138867
  53.3777067  52.6344209  14.4450958  53.2601882  51.3568091  13.6414937
  44.6960827  57.0157117   3.3759733  44.0024299  56.6011070   2.8629688
  45.4433818  57.0577653   2.7793152  60.8326048  47.8063304  -1.7585232
  60.2524717  48.4648108  -2.1407180  60.5661981  46.9840648  -2.1697815
  59.2829614  47.2068361   0.4436088  59.7829393  47.3184896  -0.3649593
  59.9265222  46.9029414   1.0836896  53.3411610  55.1146991  13.3303929
  52.8578692  55.9147351  13.5367818  53.4272549  55.1254936  12.3771373
  46.6097570  56.9475371   1.2525748  46.5868258  57.0463058   0.3007631
  46.9198206  57.7940521   1.5742914  49.2684948  59.0051526   5.3672363
  50.2228201  58.9735468   5.3002294  49.0697471  58.5442149   6.1822589
  49.8584330  57.5752642   7.9343160  50.6777219  58.0696720   7.9577998
  50.1321137  56.6584610   7.9060728  59.6150926  49.9663394  -2.7028884
  58.7276781  50.2513045  -2.9208689  60.0304915  49.8057157  -3.5501607
  62.9665462  49.9909915   1.0125455  63.7425852  50.4806367   1.2850072
  62.2413596  50.4167969   1.4697325  65.4038021  50.7037534   2.0699396
  65.9982512  50.4633270   1.3592704  65.4764604  49.9844665   2.6972932
  47.6235176  64.5471145   2.3842561  47.4889644  63.7871546   1.8180559
  47.2067239  65.2712045   1.9171349  59.5891950  55.4817930  -2.4878594
  59.5327151  55.9386481  -3.3270962  60.1420292  54.7208615  -2.6655751
  63.3996756  51.2707662  -1.6628475  63.1433690  50.8704298  -0.8320267
  62.7749624  51.9851456  -1.7878335  67.7109093  54.0103735   0.8442817
  67.1508651  54.0796924   1.6174379  67.1052597  53.8344720   0.1242313
  50.7804302  65.4440462   2.5961003  50.6636686  66.3885895   2.4939693
  49.9596749  65.1414024   2.9846802  60.6680837  60.1690598  -6.5582404
  61.5026441  59.7371796  -6.7404929  60.5065180  59.9972612  -5.6305510
  60.3226729  56.6722711  -5.1926065  60.2675533  56.5066983  -6.1337621
  59.6972784  57.3798744  -5.0363875  45.1119244  51.9090776   8.6335357
  45.7578108  51.3989730   9.1222583  44.9036395  52.6459457   9.2078783
  57.6372636  58.9771623  14.1327498  58.5063796  59.1512275  13.7714133
  57.1579388  59.7966040  14.0103227  53.6322854  46.1730820  -5.6140746
  53.6201524  47.1172660  -5.4572476  54.5246276  45.9900966  -5.9081285
  51.8058816  66.0968724   5.8116932  52.7086063  66.1292334   6.1283427
  51.5796187  65.1669175   5.8263267  53.5612418  64.8499711   2.4727010
  52.6108049  64.8501572   2.3591383  53.8644905  64.1032445   1.9563045
  57.4474974  42.7673597  -1.3594810  56.6807370  42.2132084  -1.2138127
  57.8585679  42.8395466  -0.4980658  49.4516735  49.0558393  12.7310372
  50.3148197  48.6995198  12.9413696  48.8782146  48.7172288  13.4185776
  69.2965112  70.6860249   3.5372773  69.9343522  70.5666996   2.8336113
  69.1785955  71.6341093   3.5960725  66.1054818  70.6387677   3.4734297
  65.7673330  70.5228742   2.5854832  66.9744586  70.2378842   3.4535303
  66.5874601  71.7922529   9.4320503  66.5763242  71.3975327   8.5601007
  66.7495241  71.0588601  10.0254274  59.5106066  73.9874345   2.3015409
  60.3027358  73.6465170   1.8861708  59.7502716  74.0969320   3.2217562
  63.3081862  74.5759641   8.3799687  63.0171728  75.4805272   8.2646353
  63.9438847  74.6176168   9.0943756  64.2338069  71.9536489   4.9701046
  64.8301641  71.7292512   4.2558009  64.2913041  71.2121235   5.5726494
  71.7740228  62.0608510   5.9753568  71.4423553  62.9303921   5.7514783
  71.1785841  61.7444794   6.6547598  68.2671747  74.2621056   5.3749481
  67.9672471  75.1646095   5.2665288  67.9222807  73.9953239   6.2270633
  61.7184229  70.7134853   1.4086185  60.7934725  70.5811067   1.6163877
  61.9668642  71.4929072   1.9056127  71.6668891  66.7803596   3.0546918
  70.7585769  66.7119005   2.7605679  71.6156487  67.2575541   3.8828743
  59.0793040  70.3568127   2.2429974  59.2085421  70.6102606   3.1569386
  58.3990491  70.9495835   1.9234629  65.7409757  68.1993242  10.9981815
  64.9643091  68.7587162  10.9884680  66.3800320  68.6850025  11.5196685
  73.5330538  64.9820035   4.8324792  72.8904918  65.2752568   4.1864586
  73.0285466  64.8672955   5.6377988  63.9956129  71.0078695  10.5599782
  64.7370814  71.5463739  10.2834606  63.2893115  71.6344984  10.7171334
  69.4711469  73.1507836   9.1571944  69.8794825  72.7090246   8.4126576
  68.7488730  72.5760463   9.4106136  65.8242539  68.0880443   6.5305501
  66.6703734  68.5119856   6.6740150  65.7641177  67.4314067   7.2244064
  68.9741984  65.7484811   8.1886674  68.7302916  66.5026871   7.6520950
  69.2501915  66.1270159   9.0233921  70.9280447  72.2923423   6.8663940
  71.1397342  72.9355183   6.1898321  70.8810195  71.4585740   6.3985870
  68.5306676  64.9041244   3.7700512  67.6691155  65.2022498   4.0617249
  68.5569111  65.1211643   2.8381545  62.2392327  72.9954916   3.1154081
  62.8093684  73.4242184   2.4771565  62.8300438  72.7137501   3.8138267
  62.7317493  68.1618343  11.3615092  62.1016154  68.8434624  11.5950489
  62.6253581  68.0501425  10.4168230  58.0262465  67.8290140   2.2881016
  57.2361519  68.0847668   1.8121127  58.5173713  68.6438477   2.3933057
  59.9777211  68.1934719  -0.7535507  59.1808374  68.3053413  -0.2352011
  59.7502803  68.5321371  -1.6194616  65.8082878  74.7179422   7.1947008
  65.8727311  75.1799829   8.0305179  65.0993802  74.0876787   7.3229317
  56.3100168  68.0820630   4.7196007  56.5608207  68.9667640   4.9853583
  56.8459717  67.9025232   3.9471099  62.0098236  62.4639109  13.7240343
  61.6165181  61.9105308  14.3987987  62.8264376  62.7749688  14.1146861
  64.9266197  63.8796988  11.3160600  65.6675910  64.4804142  11.2365062
  65.1584120  63.1374626  10.7578642  60.0707535  69.0653356   9.5938829
  59.9561050  68.1638613   9.8945928  59.2152053  69.3117052   9.2423646
  67.1499373  77.0071096  11.1926330  66.7063227  76.2207475  10.8747235
  67.8116586  77.1950247  10.5270221  61.9086494  78.5366898   5.7187009
  62.4593919  78.4083961   4.9464002  61.0697970  78.8361787   5.3681901
  69.2480611  77.2873896   9.2207731  69.2299086  78.1082777   8.7288000
  70.1700531  77.1627971   9.4457872  65.7053665  74.8018025  10.0631240
  66.2382002  74.0406314   9.8330548  65.1767746  74.5091677  10.8055394
  68.8723360  59.9078091   5.5924881  68.5287629  60.7979733   5.5163992
  69.2402322  59.7179749   4.7294466  66.4220753  64.7436403  -0.8417445
  65.5662350  64.3543254  -1.0211806  66.8347705  64.8228364  -1.7017660
  67.9519900  62.2782747   3.5574115  67.4484696  62.2412882   2.7441920
  68.2450507  63.1875489   3.6170771  64.1962786  62.3621476   2.5640296
  65.0615783  62.1664285   2.2046186  64.2640295  62.1331828   3.4909653
  61.8025105  64.5923684  -0.0643337  62.3768857  64.3698866  -0.7970144
  62.3896088  64.6612379   0.6885264  64.1047773  61.4664933  -1.3368267
  63.4512185  61.1513950  -1.9611653  64.0628247  60.8440674  -0.6108444
  67.3385513  67.9546867   2.9879380  66.4208075  68.1761814   2.8301068
  67.7545657  68.0293177   2.1291088  70.6711025  59.1671651   0.6942619
  70.9769902  58.3069014   0.4068534  71.3963630  59.7589271   0.4941613
  56.9635381  69.5702337  -0.9175783  56.7659781  68.9771698  -1.6424716
  56.4082045  69.2654547  -0.1999844  64.9432105  69.4625444   1.2018810
  64.9980715  68.5099280   1.1261287  64.1323307  69.6184883   1.6860109
  62.8824465  68.0802503  -1.0390811  62.0692331  68.3796674  -0.6325619
  63.3783459  67.6858192  -0.3216329  68.4798677  68.5444328   7.7924083
  68.8348064  68.7715801   8.6518549  69.1270808  68.8762705   7.1701338
  62.3738540  65.6520859   4.5770424  63.0137919  65.5109618   3.8793387
  61.5416070  65.3655372   4.2009026  59.3767156  65.6221184  -0.6456589
  59.6373974  66.5366517  -0.7547429  60.1984329  65.1545626  -0.4959976
  60.8492082  67.0358941   6.5242235  61.5215135  66.8276303   5.8754884
  60.0221868  66.8381027   6.0847468  66.7517654  63.6620882   8.5407896
  66.1045569  64.3610832   8.4472373  67.5218669  64.0957026   8.9084144
  70.1596452  73.9269734  11.6158449  70.0081958  73.6980286  10.6988533
  70.1501131  74.8840336  11.6289794  66.9281788  71.5001647   6.6004716
  67.8573848  71.6512806   6.4273683  66.5072818  71.5885668   5.7453362
  65.7270120  75.5252311   4.3703254  65.5881205  75.1571096   5.2429192
  64.9384716  76.0399951   4.1987211  61.2519579  70.3101544   7.2844672
  61.1139377  69.5781783   7.8856212  62.1624502  70.2210444   7.0028860
  63.8801879  70.0221503   6.7728352  64.5901498  69.3814696   6.7314971
  63.8371188  70.2734398   7.6954533  71.8688658  76.9588857   9.6934931
  71.8101204  76.2748077   9.0265514  72.2708177  77.7007847   9.2415557
  62.5930813  67.0086721   8.5923992  62.0568170  66.5577460   9.2445588
  62.0047522  67.1432630   7.8494456  71.8706065  74.9228441   7.9248911
  70.9832844  74.5854362   8.0475310  72.4404616  74.1911472   8.1617676
  53.5235213  71.2552532   1.2491962  54.2106252  70.9414262   0.6612978
  53.3683341  72.1593897   0.9759214  58.3269935  66.1442729   5.6776986
  58.2428123  65.5368398   4.9427396  57.5052641  66.6351747   5.6786482
  68.4993649  64.6296292   1.0447181  68.9962348  63.8766255   0.7248251
  67.7280630  64.6660609   0.4790390  65.0828617  66.7713675   0.7718866
  64.7126405  66.2184716   1.4599771  65.5787710  66.1671809   0.2193866
  62.9117816  77.2311170   7.8673884  63.6127275  77.8647653   8.0203278
  62.4412931  77.5725902   7.1069523  70.9412643  61.5965886   3.1926540
  70.0275723  61.8270113   3.3608747  71.3705745  61.6804330   4.0440572
  70.7119102  69.7855778   5.6926434  70.0590552  70.0331685   5.0378887
  71.0899482  68.9719916   5.3588911  66.7606675  70.5275589  12.1792471
  66.0847312  70.4269718  12.8494846  67.5834309  70.3714803  12.6428468
  58.5085534  76.7647526   4.8004986  59.0938971  76.0191213   4.9332891
  58.3110372  77.0751482   5.6841650  53.1003189  69.3353126   3.5209430
  53.1387288  68.8016716   4.3146548  52.5943481  68.8088331   2.9020407
  60.4793951  64.1817666   7.0171972  60.5435277  65.0432497   6.6049370
  60.4161071  63.5691668   6.2844330  59.9546223  66.2540799  10.6645006
  60.5818262  65.8717876  11.2782530  59.0974142  66.0355001  11.0300699
  70.3540332  76.6603774  12.2698742  70.8980236  77.2733732  11.7753696
  69.7727177  77.2183352  12.7865755  56.7311766  68.0617228  -3.4036639
  57.0265207  67.1527906  -3.4569585  55.8299802  68.0404967  -3.7255637
  60.2606013  66.1373224   2.5790910  59.5392599  66.7509192   2.4398383
  61.0499269  66.6730989   2.5007555  63.0632327  63.4727651   8.8531561
  63.5866729  63.7189947   9.6157871  62.8444660  64.3047686   8.4334699
  58.4599608  65.7431326  -3.2797314  58.1312314  64.8628704  -3.4622208
  58.8138979  65.6878994  -2.3920925  64.2684872  64.4141346   6.5381232
  63.9281692  63.6149159   6.9401912  63.5623878  64.7143057   5.9658065
  64.9201344  61.4990658   4.9908555  65.7427413  61.0251137   4.8687445
  65.1639407  62.2781142   5.4907241  62.4439922  68.1909779   2.8000533
  62.2984503  68.5050082   3.6924815  61.9665126  68.8094679   2.2471432
  64.3036305  65.1812327   2.8481423  64.2897874  64.2853420   2.5113721
  65.0208733  65.1882991   3.4819709  66.1562436  65.6149667   4.8934550
  65.8980214  66.5366738   4.8918881  65.6247476  65.2180102   5.5835015
  56.9185585  70.7315124   5.7388195  56.3739053  71.5074931   5.8708469
  57.7964934  71.0785928   5.5807316  63.7073201  64.0626707  -1.8831007
  63.8289112  63.1343354  -1.6840119  63.4175244  64.0765393  -2.7952691
  66.5764392  61.7481618   1.2535713  66.5986088  61.8120951   0.2987693
  66.9932451  60.9086126   1.4476219  57.7051606  69.8585020   8.6318351
  56.9633342  70.0067655   9.2182982  57.3844351  70.1193285   7.7685101
  65.6495269  79.4000998   8.4298741  65.9582396  79.1550145   9.3021441
  66.4470751  79.6047636   7.9417612  56.3516825  75.6636775   1.6217680
  55.5148733  75.2358949   1.4401681  56.3240471  75.8569218   2.5588471
  63.1914281  65.5758705  12.3258926  63.2402436  66.4520828  11.9436695
  63.7336795  65.0336098  11.7530569  73.6769126  76.1199828  11.6060063
  72.8864670  76.1023967  11.0664562  73.4402481  76.6588122  12.3609099
  73.7967001  72.9692294   8.9192791  73.8465006  72.8042302   9.8608314
  73.6880925  72.1019553   8.5290672  71.0870764  68.9523222  10.2352098
  71.9880627  68.8129687   9.9436096  71.1618738  69.1177677  11.1750275
  65.4213569  66.3290077   9.0805284  64.5516879  66.6223643   8.8087873
  65.6573050  66.9130522   9.8012548  75.2985198  75.3889236   9.1634813
  75.0070007  75.7519216   9.9998274  74.6857330  74.6756244   8.9848145
  73.5472387  70.5121851   7.6314871  74.0226508  70.7049497   6.8233722
  72.6237952  70.5681036   7.3858255  68.1252603  62.5469694   6.5970705
  68.6434547  63.2830721   6.2717193  67.7707736  62.8533687   7.4317464
  68.3765197  58.9669977   2.1171601  68.6566951  58.2993166   2.7432028
  69.1615804  59.1599072   1.6046265  72.2474056  67.3887611   5.8643176
  73.1991478  67.4885708   5.8855401  72.0777506  66.5965879   6.3741261
  70.2688435  64.4743194   6.0502577  69.6738367  64.7548207   5.3549066
  69.9838132  64.9637095   6.8219318  74.8756622  67.4004774   5.0243759
  74.3595670  66.6163230   4.8373688  75.7596570  67.0723490   5.1890279
  72.5367349  61.1445789   0.9839572  72.3392170  60.8360877   1.8682904
  73.1467054  61.8707428   1.1137502  66.4484157  73.5307529  12.4813337
  67.3687166  73.7086128  12.6753384  66.4133740  72.5863575  12.3293036
  55.6666322  68.7246123   1.4066612  55.3469106  67.8711431   1.1140986
  55.1199750  68.9394701   2.1624579  59.4446229  71.4408564   5.1236118
  59.6632239  72.3725672   5.1424152  59.8572003  71.0816538   5.9090922
  66.3650447  61.9476649  -2.8888193  65.5551175  61.6023734  -2.5132947
  67.0534864  61.6384193  -2.3000582  68.2940995  61.0254696  -1.2663897
  68.8472034  61.4450150  -0.6073874  68.5311082  60.0990444  -1.2240941
  64.3174095  67.0141770  14.5138867  64.2170821  67.9636127  14.4450958
  64.0995637  66.6860009  13.6414937  55.5354582  72.3449035   3.3759733
  54.8418053  71.9302987   2.8629688  56.2827573  72.3869571   2.7793152
  70.1223369  62.5360279   0.4436088  70.6223147  62.6476814  -0.3649593
  70.7658977  62.2321332   1.0836896  64.1805365  70.4438909  13.3303929
  63.6972446  71.2439269  13.5367818  64.2666304  70.4546854  12.3771373
  57.4491324  72.2767288   1.2525748  57.4262012  72.3754976   0.3007631
  57.7591961  73.1232439   1.5742914  60.1078702  74.3343443   5.3672363
  61.0621956  74.3027386   5.3002294  59.9091226  73.8734067   6.1822589
  60.6978084  72.9044559   7.9343160  61.5170973  73.3988638   7.9577998
  60.9714892  71.9876528   7.9060728  55.9512999  67.2382693   8.6335357
  56.5971862  66.7281647   9.1222583  55.7430150  67.9751375   9.2078783
  68.4766391  74.3063541  14.1327498  69.3457550  74.4804193  13.7714133
  67.9973142  75.1257958  14.0103227  68.2868728  58.0965515  -1.3594810
  67.5201124  57.5424001  -1.2138127  68.6979433  58.1687383  -0.4980658
  60.2910490  64.3850310  12.7310372  61.1541951  64.0287115  12.9413696
  59.7175900  64.0464205  13.4185776  72.8491990  77.7931027  13.7240343
  72.4558936  77.2397226  14.3987987  73.6658131  78.1041605  14.1146861
  75.7659951  79.2088906  11.3160600  76.5069665  79.8096059  11.2365062
  75.9977874  78.4666544  10.7578642  70.7939978  81.5832716  10.6645006
  71.4212017  81.2009794  11.2782530  69.9367897  81.3646918  11.0300699
  74.0308035  80.9050622  12.3258926  74.0796191  81.7812745  11.9436695
  74.5730549  80.3628015  11.7530569  75.1567849  82.3433688  14.5138867
  75.0564576  83.2928044  14.4450958  74.9389391  82.0151926  13.6414937
  66.7906753  82.5674611   8.6335357  67.4365617  82.0573565   9.1222583
  66.5823904  83.3043293   9.2078783  71.1304244  79.7142228  12.7310372
  71.9935706  79.3579033  12.9413696  70.5569655  79.3756123  13.4185776
  59.5146579  38.3373979  -1.0055952  60.0586483  38.9503937  -1.5000997
  58.9333424  38.8953557  -0.4888939  62.8375373  37.7970033  -1.6694631
  62.0470917  37.7794172  -2.2090131  62.6008728  38.3358327  -0.9145594
  64.4591445  37.0659441  -4.1119880  64.1676253  37.4289421  -3.2756420
  63.8463576  36.3526449  -4.2906548  57.6372637  35.9833746   0.8572805
  58.5063797  36.1574398   0.4959440  57.1579389  36.8028163   0.7348534
  69.2965113  47.6922372  -9.7381921  69.9343523  47.5729119 -10.4418581
  69.1785956  48.6403216  -9.6793969  66.1054819  47.6449800  -9.8020396
  65.7673331  47.5290864 -10.6899861  66.9744588  47.2440965  -9.8219390
  66.5874602  48.7984651  -3.8434191  66.5763243  48.4037450  -4.7153687
  66.7495242  48.0650724  -3.2500419  63.3081864  51.5821763  -4.8955007
  63.0171730  52.4867394  -5.0108340  63.9438848  51.6238291  -4.1810937
  64.2338070  48.9598612  -8.3053647  64.8301643  48.7354634  -9.0196684
  64.2913042  48.2183357  -7.7028199  71.7740229  39.0670633  -7.3001126
  71.4423554  39.9366044  -7.5239911  71.1785843  38.7506917  -6.6207095
  68.2671749  51.2683179  -7.9005213  67.9672472  52.1708218  -8.0089406
  67.9222808  51.0015362  -7.0484060  71.6668892  43.7865719 -10.2207776
  70.7585770  43.7181127 -10.5149015  71.6156488  44.2637664  -9.3925950
  65.7409758  45.2055365  -2.2772878  64.9643092  45.7649285  -2.2870014
  66.3800321  45.6912148  -1.7558008  73.5330539  41.9882157  -8.4429902
  72.8904919  42.2814691  -9.0890107  73.0285467  41.8735078  -7.6376705
  63.9956131  48.0140818  -2.7154911  64.7370815  48.5525862  -2.9920088
  63.2893116  48.6407107  -2.5583359  69.4711470  50.1569958  -4.1182750
  69.8794826  49.7152369  -4.8628117  68.7488732  49.5822586  -3.8648557
  65.8242540  45.0942565  -6.7449193  66.6703735  45.5181979  -6.6014544
  65.7641178  44.4376189  -6.0510630  68.9741986  42.7546934  -5.0868019
  68.7302917  43.5088994  -5.6233743  69.2501916  43.1332281  -4.2520772
  70.9280448  49.2985546  -6.4090754  71.1397344  49.9417306  -7.0856373
  70.8810197  48.4647862  -6.8768824  62.2392328  50.0017039 -10.1600613
  62.8093685  50.4304307 -10.7983128  62.8300440  49.7199623  -9.4616427
  62.7317494  45.1680466  -1.9139601  62.1016155  45.8496747  -1.6804204
  62.6253582  45.0563548  -2.8586463  65.8082880  51.7241545  -6.0807686
  65.8727312  52.1861952  -5.2449514  65.0993804  51.0938910  -5.9525376
  62.0098237  39.4701232   0.4485650  61.6165183  38.9167430   1.1233294
  62.8264377  39.7811810   0.8392167  64.9266198  40.8859111  -1.9594094
  65.6675911  41.4866264  -2.0389631  65.1584121  40.1436749  -2.5176051
  60.0707536  46.0715478  -3.6815864  59.9561051  45.1700736  -3.3808765
  59.2152054  46.3179175  -4.0331047  67.1499374  54.0133219  -2.0828363
  66.7063228  53.2269597  -2.4007459  67.8116587  54.2012369  -2.7484473
  61.9086495  55.5429020  -7.5567685  62.4593920  55.4146084  -8.3290691
  61.0697971  55.8423909  -7.9072792  69.2480612  54.2936019  -4.0546962
  69.2299087  55.1144900  -4.5466693  70.1700532  54.1690094  -3.8296821
  65.7053666  51.8080148  -3.2123454  66.2382003  51.0468436  -3.4424146
  65.1767747  51.5153800  -2.4699299  68.4798678  45.5506450  -5.4830610
  68.8348066  45.7777924  -4.6236145  69.1270809  45.8824827  -6.1053355
  60.8492083  44.0421064  -6.7512458  61.5215136  43.8338426  -7.3999809
  60.0221869  43.8443150  -7.1907226  66.7517655  40.6683005  -4.7346797
  66.1045570  41.3672954  -4.8282321  67.5218670  41.1019148  -4.3670549
  70.1596453  50.9331857  -1.6596244  70.0081959  50.7042408  -2.5766160
  70.1501132  51.8902458  -1.6464899  66.9281789  48.5063769  -6.6749977
  67.8573849  48.6574929  -6.8481010  66.5072819  48.5947790  -7.5301331
  65.7270121  52.5314434  -8.9051440  65.5881207  52.1633218  -8.0325502
  64.9384717  53.0462073  -9.0767482  61.2519580  47.3163667  -5.9910021
  61.1139378  46.5843905  -5.3898482  62.1624504  47.2272567  -6.2725833
  63.8801881  47.0283626  -6.5026341  64.5901499  46.3876818  -6.5439723
  63.8371189  47.2796521  -5.5800160  71.8688659  53.9650979  -3.5819762
  71.8101206  53.2810199  -4.2489179  72.2708178  54.7069969  -4.0339136
  62.5930815  44.0148844  -4.6830702  62.0568172  43.5639582  -4.0309105
  62.0047523  44.1494753  -5.4260237  71.8706067  51.9290563  -5.3505782
  70.9832845  51.5916485  -5.2279383  72.4404618  51.1973594  -5.1137017
  62.9117817  54.2373293  -5.4080810  63.6127277  54.8709776  -5.2551415
  62.4412932  54.5788025  -6.1685170  70.7119103  46.7917901  -7.5828259
  70.0590553  47.0393808  -8.2375807  71.0899483  45.9782039  -7.9165782
  66.7606676  47.5337712  -1.0962222  66.0847313  47.4331841  -0.4259847
  67.5834310  47.3776925  -0.6326225  58.5085535  53.7709648  -8.4749707
  59.0938972  53.0253336  -8.3421803  58.3110374  54.0813605  -7.5913043
  59.9546225  43.2602921  -2.6109687  60.5818264  42.8779999  -1.9972163
  59.0974144  43.0417123  -2.2453995  70.3540333  53.6665897  -1.0055952
  70.8980237  54.2795855  -1.5000997  69.7727178  54.2245475  -0.4888939
  63.0632328  40.4789774  -4.4223132  63.5866730  40.7252070  -3.6596823
  62.8444661  41.3109808  -4.8419995  64.2684873  41.4203469  -6.7373462
  63.9281693  40.6211282  -6.3352782  63.5623879  41.7205180  -7.3096628
  66.1562437  42.6211790  -8.3820143  65.8980215  43.5428861  -8.3835813
  65.6247478  42.2242224  -7.6919679  56.9185586  47.7377246  -7.5366499
  56.3739054  48.5137054  -7.4046224  57.7964936  48.0848051  -7.6947377
  57.7051608  46.8647142  -4.6436342  56.9633344  47.0129778  -4.0571711
  57.3844352  47.1255408  -5.5069592  65.6495270  56.4063121  -4.8455952
  65.9582397  56.1612267  -3.9733252  66.4470752  56.6109759  -5.3337082
  63.1914282  42.5820827  -0.9495768  63.2402437  43.4582950  -1.3317998
  63.7336796  42.0398220  -1.5224124  73.6769128  53.1261951  -1.6694631
  72.8864671  53.1086089  -2.2090131  73.4402482  53.6650244  -0.9145594
  73.7967003  49.9754417  -4.3561902  73.8465008  49.8104424  -3.4146379
  73.6880926  49.1081676  -4.7464021  71.0870765  45.9585345  -3.0402595
  71.9880628  45.8191810  -3.3318598  71.1618740  46.1239800  -2.1004418
  65.4213570  43.3352200  -4.1949409  64.5516880  43.6285766  -4.4666820
  65.6573051  43.9192645  -3.4742145  75.2985200  52.3951358  -4.1119880
  75.0070008  52.7581339  -3.2756420  74.6857331  51.6818367  -4.2906548
  73.5472388  47.5183973  -5.6439823  74.0226509  47.7111619  -6.4520971
  72.6237953  47.5743159  -5.8896439  68.1252604  39.5531817  -6.6783989
  68.6434548  40.2892844  -7.0037500  67.7707737  39.8595810  -5.8437229
  72.2474057  44.3949733  -7.4111517  73.1991480  44.4947831  -7.3899293
  72.0777507  43.6028002  -6.9013433  70.2688436  41.4805316  -7.2252116
  69.6738368  41.7610329  -7.9205627  69.9838133  41.9699217  -6.4535375
  74.8756623  44.4066896  -8.2510934  74.3595672  43.6225353  -8.4381005
  75.7596572  44.0785613  -8.0864415  66.4484158  50.5369652  -0.7941356
  67.3687167  50.7148251  -0.6001310  66.4133741  49.5925697  -0.9461657
  59.4446231  48.4470687  -8.1518575  59.6632240  49.3787794  -8.1330541
  59.8572004  48.0878661  -7.3663771  64.3174096  44.0203892   1.2384174
  64.2170823  44.9698249   1.1696265  64.0995638  43.6922131   0.3660244
  64.1805366  47.4501031   0.0549236  63.6972448  48.2501391   0.2613125
  64.2666305  47.4608976  -0.8983320  60.1078703  51.3405566  -7.9082331
  61.0621957  51.3089508  -7.9752399  59.9091227  50.8796190  -7.0932105
  60.6978086  49.9106682  -5.3411533  61.5170975  50.4050761  -5.3176696
  60.9714893  48.9938650  -5.3693966  55.9513000  44.2444816  -4.6419336
  56.5971863  43.7343770  -4.1532111  55.7430151  44.9813498  -4.0675911
  68.4766392  51.3125663   0.8572805  69.3457552  51.4866316   0.4959440
  67.9973143  52.1320080   0.7348534  60.2910491  41.3912433  -0.5444322
  61.1541952  41.0349238  -0.3340997  59.7175901  41.0526328   0.1431083
  72.8491992  54.7993150   0.4485650  72.4558937  54.2459348   1.1233294
  73.6658132  55.1103728   0.8392167  75.7659953  56.2151029  -1.9594094
  76.5069666  56.8158182  -2.0389631  75.9977875  55.4728666  -2.5176051
  70.7939979  58.5894839  -2.6109687  71.4212018  58.2071916  -1.9972163
  69.9367898  58.3709041  -2.2453995  74.0308037  57.9112745  -0.9495768
  74.0796192  58.7874868  -1.3317998  74.5730551  57.3690138  -1.5224124
  75.1567850  59.3495810   1.2384174  75.0564577  60.2990167   1.1696265
  74.9389392  59.0214049   0.3660244  66.7906754  59.5736734  -4.6419336
  67.4365618  59.0635688  -4.1532111  66.5823905  60.3105415  -4.0675911
  71.1304245  56.7204351  -0.5444322  71.9935707  56.3641155  -0.3340997
  70.5569656  56.3818245   0.1431083   4.2575983  79.1780089  41.2135346
   3.5039691  78.6087487  41.0579350   4.3923524  79.1442753  42.1605980
   0.6224595  80.6188077  41.5101460   1.4571487  81.0577881  41.6739020
   0.7583724  80.1426730  40.6909706   4.6682398  79.3355699  43.9455590
   5.3985786  79.0740987  44.5063293   4.0589343  78.5984421  43.9857658
   2.7497695  77.4763561  44.5430041   2.0230859  77.3419526  43.9346533
   2.3344982  77.7840390  45.3486759   2.6746563  77.0041614  40.6706894
   2.1146121  77.0734804  41.4438456   2.0690066  76.8282599  39.9506390
   4.2602581  93.6798128  43.3636850   4.8980991  93.5604876  42.6600190
   4.1423424  94.6278972  43.4224802   1.0692288  93.6325556  43.2998374
   0.7310799  93.5166621  42.4118909   1.9382056  93.2316721  43.2799380
   3.8143850  91.4049582  40.4390058   4.6006939  90.9869005  40.0880475
   4.0782554  92.3095674  40.6071706   9.2152277  91.3424815  41.3423036
   9.9477449  90.7724032  41.5760866   8.4591633  90.9546416  41.7829542
   6.7377697  85.0546389  45.8017645   6.4061022  85.9241800  45.5778860
   6.1423311  84.7382673  46.4811675   6.6306361  89.7741476  42.8810995
   5.7223238  89.7056884  42.5869756   6.5793956  90.2513420  43.7092820
   8.4968007  87.9757914  44.6588869   7.8542387  88.2690447  44.0128663
   7.9922935  87.8610834  45.4642065   6.1508171  91.7221087  35.3474728
   7.0626027  91.9548474  35.1722426   5.6417818  92.3058131  34.7849807
   0.7880008  91.0818322  46.3569578   1.6341203  91.5057735  46.5004227
   0.7278646  90.4251946  47.0508141   3.9379454  88.7422690  48.0150751
   3.6940386  89.4964751  47.4785027   4.2139384  89.1208038  48.8497998
   5.8917916  95.2861302  46.6928017   6.1034812  95.9293062  46.0162398
   5.8447665  94.4523619  46.2249947   3.4944145  87.8979123  43.5964589
   2.6328624  88.1960377  43.8881326   3.5206580  88.1149522  42.6645622
  15.0969737  94.5072006  41.2135346  14.3433446  93.9379404  41.0579350
  15.2317279  94.4734671  42.1605980   3.8360829  82.9015971  45.4188958
   3.4925098  83.7917612  45.3428069   4.2039792  82.7117628  44.5558543
   3.8011112  92.8924582  33.9261394   3.2857735  93.6629186  34.1649781
   3.5288420  92.2189718  34.5494455   1.3858223  87.7374282  38.9846632
   0.5299819  87.3481133  38.8052271   1.7985175  87.8166243  38.1246417
   2.9157369  85.2720626  43.3838192   2.4122165  85.2350761  42.5705997
   3.2087976  86.1813368  43.4434848   8.7745386  95.6456936  35.8614567
   7.9974829  95.3068096  35.4169729   9.4536867  95.6509559  35.1869532
   3.5897415  90.7651674  35.7521175   3.2847550  91.0797823  36.6031318
   4.5427857  90.8433094  35.7948508   7.0136693  95.1190918  42.5181175
   6.3560367  95.8090179  42.6061304   7.8177092  95.5087349  42.8615161
   5.8242152  93.4735290  40.5685117   6.3374033  94.1065282  41.0706826
   6.4743375  92.8736486  40.2028477   2.3022982  90.9484746  42.8143457
   1.3845544  91.1699693  42.6565145   2.7183126  91.0231056  41.9555165
   3.0858030  92.3476161  37.9446138   3.8329849  92.8597559  37.6353260
   3.3549620  92.0260214  38.8050531   5.5336867  89.3833278  39.9264927
   4.7959624  88.8710664  40.2575169   5.7863641  88.9433659  39.1148204
   5.6348495  82.1609530  40.5206696   5.9407371  81.3006893  40.2332611
   6.3601099  82.7527150  40.3205690   3.4436146  91.5382207  47.6188160
   3.7985534  91.7653680  48.4782626   4.0908277  91.8700584  46.9965415
   9.1733883  94.6600643  38.3237489   9.0351782  94.8502239  37.3958678
   8.8170102  95.4220026  38.7805540   9.2003263  96.7277170  43.3348760
   9.6339769  96.6352459  44.1831814   9.9134843  96.7034670  42.6968776
  10.0618812  96.7700871  45.8681646  10.2554702  97.6746681  46.1140921
   9.9619430  96.3108290  46.7020231   1.7155123  86.6558761  48.3671973
   1.0683038  87.3548711  48.2736450   2.4856138  87.0894905  48.7348221
   1.8919257  94.4939526  46.4268793   2.8211317  94.6450686  46.2537760
   1.4710287  94.5823547  45.5717439   3.4631118  87.6234172  40.8711258
   3.9599817  86.8704134  40.5512328   2.6918099  87.6598488  40.3054467
  11.3160875  93.3274537  42.5129550  11.3050751  94.2099253  42.1423483
  10.4478255  92.9746088  42.3184087   7.9333450  92.2223178  38.9799716
   8.3993902  93.0551170  38.9060018   8.3840950  91.7568160  39.6844974
   5.9050113  84.5903765  43.0190617   4.9913192  84.8207992  43.1872824
   6.3343214  84.6742209  43.8704649   5.6756571  92.7793657  45.5190511
   5.0228021  93.0269565  44.8642964   6.0536951  91.9657795  45.1852988
   1.7244144  93.5213468  52.0056548   1.0484781  93.4207597  52.6758923
   2.5471778  93.3652682  52.4692545   2.6678170  88.2261945  36.0493866
   2.8841785  89.1086583  35.7482694   2.1872237  87.8348158  35.3199508
   1.1199905  88.6087547  44.7198627   0.8617683  89.5304617  44.7182958
   0.5884946  88.2117981  45.4099092   1.5401861  84.7419497  41.0799790
   1.5623558  84.8058830  40.1251770   1.9569920  83.9024006  41.2740296
  11.9185485  94.4774757  39.1179013  12.3616631  93.7282082  38.7198136
  11.0411996  94.4684893  38.7352745   8.7604471  95.9630174  48.7456868
   8.8102476  95.7980181  49.6872391   8.6518394  95.0957433  48.3554749
   6.0508233  91.9461102  50.0616175   6.9518096  91.8067566  49.7700173
   6.1256208  92.1115556  51.0014352  11.4618350  95.9479995  41.5101460
  12.2965241  96.3869799  41.6739020  11.5977479  95.4718648  40.6909706
   8.5109856  93.5059730  47.4578948   8.9863977  93.6987376  46.6497799
   7.5875421  93.5618916  47.2122332   3.0890072  85.5407573  46.4234782
   3.6072016  86.2768600  46.0981270   2.7345205  85.8471567  47.2581541
   3.3402666  81.9607856  41.9435678   3.6204420  81.2931045  42.5696105
   4.1253273  82.1536951  41.4310342   7.2111525  90.3825490  45.6907253
   8.1628948  90.4823587  45.7119478   7.0414975  89.5903758  46.2005338
   5.2325904  87.4681073  45.8766654   4.6375836  87.7486086  45.1813143
   4.9475601  87.9574974  46.6483395   9.6899603  93.6031609  44.8049553
   9.6575923  92.6647610  44.9909237  10.3000226  93.6815646  44.0715378
   9.8394091  90.3942653  44.8507836   9.3233140  89.6101110  44.6637765
  10.7234040  90.0661370  45.0154356   7.5004818  84.1383668  40.8103649
   7.3029639  83.8298757  41.6946981   8.1104524  84.8645307  40.9401579
  15.5076152  94.6647616  43.9455590  16.2379541  94.4032904  44.5063293
  14.8983098  93.9276338  43.9857658  13.5891450  92.8055479  44.5430041
  12.8624613  92.6711444  43.9346533  13.1738736  93.1132308  45.3486759
   1.3287916  84.9414529  36.9375884   0.5188645  84.5961614  37.3131130
   2.0172333  84.6322072  37.5263495   3.2578465  84.0192575  38.5600180
   3.8109503  84.4388029  39.2190203   3.4948551  83.0928323  38.6023136
   6.6357272  86.1293101  38.0678845   6.0555941  86.7877905  37.6856897
   6.3693204  85.3070445  37.6566262   5.0860838  85.5298158  40.2700165
   5.5860616  85.6414693  39.4614484   5.7296446  85.2259211  40.9100973
   5.4182150  88.2893191  37.1235193   4.5308005  88.5742842  36.9055388
   5.8336139  88.1286954  36.2762470   8.7696686  88.3139712  40.8389532
   9.5457076  88.8036164  41.1114149   8.0444820  88.7397766  41.2961402
  11.2069245  89.0267331  41.8963473  11.8013735  88.7863067  41.1856781
  11.2795828  88.3074462  42.5237009   5.3923173  93.8047727  37.3385483
   5.3358375  94.2616278  36.4993115   5.9451516  93.0438411  37.1608326
   9.2027979  89.5937459  38.1635603   8.9464914  89.1934094  38.9943810
   8.5780847  90.3081253  38.0385742  13.5140317  92.3333532  40.6706894
  12.9539875  92.4026721  41.4438456  12.9083821  92.1574517  39.9506390
   6.1257953  94.9952508  34.6338012   6.0706757  94.8296780  33.6926456
   5.5004008  95.7028541  34.7900202   3.2506198  81.0903394  38.4669267
   2.4838594  80.5361880  38.6125950   3.6616903  81.1625263  39.3283419
  14.6754584  98.2307888  45.4188958  14.3318853  99.1209530  45.3428069
  15.0433546  98.0409546  44.5558543  16.4742249  97.4901447  40.5206696
  16.7801126  96.6298811  40.2332611  17.1994854  98.0819068  40.3205690
  14.1796421  97.2899773  41.9435678  14.4598175  96.6222963  42.5696105
  14.9647028  97.4828869  41.4310342  18.3398573  99.4675586  40.8103649
  18.1423394  99.1590674  41.6946981  18.9498278 100.1937225  40.9401579
  14.0899952  96.4195311  38.4669267  13.3232348  95.8653798  38.6125950
  14.5010657  96.4917180  39.3283419   4.2575984  56.1842211  27.9380652
   3.5039693  55.6149609  27.7824657   4.3923525  56.1504876  28.8851287
   0.6224597  57.6250200  28.2346767   1.4571488  58.0640004  28.3984327
   0.7583725  57.1488853  27.4155013   4.6682399  56.3417821  30.6700897
   5.3985788  56.0803109  31.2308600   4.0589345  55.6046543  30.7102965
   2.7497696  54.4825684  31.2675348   2.0230860  54.3481649  30.6591839
   2.3344983  54.7902512  32.0732066   2.6746564  54.0103737  27.3952201
   2.1146122  54.0796926  28.1683763   2.0690067  53.8344722  26.6751697
   4.2602582  70.6860251  30.0882156   4.8980992  70.5666998  29.3845496
   4.1423425  71.6341095  30.1470108   1.0692289  70.6387679  30.0243681
   0.7310800  70.5228744  29.1364216   1.9382057  70.2378844  30.0044687
   1.5512072  71.7922531  35.9829886   1.5400713  71.3975329  35.1110390
   1.7132711  71.0588603  36.5763658   3.8143851  68.4111705  27.1635364
   4.6006940  67.9931128  26.8125781   4.0782555  69.3157797  27.3317013
   3.9853928  73.8484555  21.8624021   3.3499761  73.9219181  22.5744926
   3.6551335  74.4378154  21.1843100   9.2152278  68.3486938  28.0668343
   9.9477450  67.7786155  28.3006172   8.4591634  67.9608538  28.5074848
   6.7377698  62.0608512  32.5262951   6.4061023  62.9303923  32.3024166
   6.1423312  61.7444796  33.2056982   3.2309218  74.2621058  31.9258864
   2.9309941  75.1646097  31.8174671   2.8860278  73.9953241  32.7780017
   6.6306362  66.7803598  29.6056301   5.7223239  66.7119007  29.3115062
   6.5793958  67.2575543  30.4338127   8.4968008  64.9820037  31.3834175
   7.8542388  65.2752570  30.7373970   7.9922937  64.8672957  32.1887372
   6.1508172  68.7283210  22.0720035   7.0626028  68.9610596  21.8967732
   5.6417819  69.3120254  21.5095113   4.4348939  73.1507838  35.7081327
   4.8432296  72.7090248  34.9635960   3.7126201  72.5760465  35.9615520
   0.7880010  68.0880444  33.0814884   1.6341205  68.5119858  33.2249533
   0.7278647  67.4314069  33.7753447   4.7577754  73.7109028  29.4633616
   4.1286617  73.8754742  28.7609684   4.3703416  74.1250638  30.2344580
   8.6366986  74.6463466  26.8177980   7.9518024  75.0262367  26.2675013
   8.7210835  75.2558793  27.5509928   3.9379455  65.7484813  34.7396058
   3.6940387  66.5026873  34.2030334   4.2139385  66.1270160  35.5743305
   5.8917918  72.2923425  33.4173323   6.1034813  72.9355185  32.7407704
   5.8447666  71.4585742  32.9495253   3.4944147  64.9041246  30.3209896
   2.6328626  65.2022499  30.6126633   3.5206581  65.1211645  29.3890928
   7.0063746  75.1695380  31.5895681   7.8281189  74.7675568  31.3078362
   7.0026148  75.0663615  32.5411797  15.0969739  71.5134129  27.9380652
  14.3433447  70.9441527  27.7824657  15.2317280  71.4796793  28.8851287
   2.1136843  77.0071098  37.7435714   1.6700697  76.2207476  37.4256618
   2.7754057  77.1950248  37.0779604   4.2118081  77.2873898  35.7717115
   4.1936556  78.1082779  35.2797384   5.1338001  77.1627973  35.9967256
   3.8360830  59.9078093  32.1434265   3.4925100  60.7979735  32.0673376
   4.2039793  59.7179751  31.2803850   3.8011113  69.8986704  20.6506700
   3.2857736  70.6691309  20.8895088   3.5288421  69.2251840  21.2739762
   1.3858224  64.7436405  25.7091939   0.5299820  64.3543255  25.5297577
   1.7985176  64.8228366  24.8491724   2.9157371  62.2782748  30.1083498
   2.4122166  62.2412883  29.2951304   3.2087978  63.1875491  30.1680155
   8.7745387  72.6519059  22.5859874   7.9974830  72.3130218  22.1415036
   9.4536868  72.6571682  21.9114839   3.5897416  67.7713796  22.4766481
   3.2847552  68.0859946  23.3276625   4.5427858  67.8495216  22.5193814
   2.0343848  73.9304020  24.1259435   1.5065210  73.1956779  23.8132673
   1.5331351  74.7078696  23.8799404   7.0136694  72.1253040  29.2426482
   6.3560368  72.8152302  29.3306610   7.8177093  72.5149472  29.5860468
   5.8242153  70.4797413  27.2930423   6.3374035  71.1127405  27.7952133
   6.4743377  69.8798608  26.9273783   2.3022984  67.9546868  29.5388764
   1.3845545  68.1761815  29.3810452   2.7183127  68.0293179  28.6800471
   3.0858031  69.3538284  24.6691444   3.8329850  69.8659681  24.3598566
   3.3549621  69.0322337  25.5295838   6.5903949  75.4603414  25.4209566
   6.1366276  74.6194324  25.4774756   5.9597916  76.0964813  25.7584346
   5.5336869  66.3895400  26.6510233   4.7959625  65.8772787  26.9820476
   5.7863642  65.9495782  25.8393510   5.0336888  77.2979911  26.3559384
   5.3259863  77.8584968  25.6371750   5.5435509  77.5908472  27.1112543
   5.6348496  59.1671652  27.2452003   5.9407373  58.3069016  26.9577918
   6.3601101  59.7589273  27.0450997   3.4436147  68.5444330  34.3433467
   3.7985535  68.7715803  35.2027932   4.0908278  68.8762706  33.7210722
   9.1733884  71.6662766  25.0482796   9.0351783  71.8564361  24.1203985
   8.8170103  72.4282148  25.5050847   9.2003264  73.7339293  30.0594067
   9.6339770  73.6414582  30.9077121   9.9134845  73.7096793  29.4214083
   2.9331159  77.3341387  31.5927168   2.9868181  77.9032323  32.3604884
   2.0645940  77.5043272  31.2281205  10.0618813  73.7762993  32.5926952
  10.2554703  74.6808804  32.8386227   9.9619432  73.3170412  33.4265538
   1.7155124  63.6620884  35.0917280   1.0683039  64.3610833  34.9981756
   2.4856140  64.0957028  35.4593528   5.1233922  73.9269736  38.1667833
   4.9719428  73.6980288  37.2497917   5.1138602  74.8840337  38.1799178
   1.8919258  71.5001649  33.1514100   2.8211318  71.6512808  32.9783067
   1.4710288  71.5885669  32.2962746   2.2412805  74.9033916  28.3101475
   1.9062638  74.8634686  29.2059125   1.7416751  74.2378632  27.8371885
   5.1771997  72.2489950  18.5838535   4.5601168  71.5236778  18.4871587
   4.7088486  73.0099310  18.2405609   6.8326129  76.9588858  36.2444315
   6.7738675  76.2748079  35.5774898   7.2345647  77.7007848  35.7924941
   6.8343536  74.9228442  34.4758295   5.9470315  74.5854364  34.5984694
   7.4042087  74.1911474  34.7127060   3.4631119  64.6296294  27.5956565
   3.9599819  63.8766257  27.2757635   2.6918101  64.6660611  27.0299774
  11.3160877  70.3336660  29.2374856  11.3050753  71.2161375  28.8668789
  10.4478256  69.9808211  29.0429393   2.8243373  79.4816729  33.5977697
   3.5371345  80.1164194  33.5253598   2.3333402  79.5780595  32.7817698
   4.5460900  73.3867981  25.1694988   3.6117179  73.5069444  24.9999693
   4.7237568  72.4840448  24.9054998   7.9333451  69.2285301  25.7045022
   8.3993903  70.0613292  25.6305325   8.3840952  68.7630282  26.4090281
   6.0009682  75.5729122  22.7031174   6.2769526  75.4585717  23.6125048
   5.1314181  75.1746607  22.6643347   5.9050114  61.5965888  29.7435924
   4.9913194  61.8270115  29.9118131   6.3343215  61.6804332  30.5949956
   5.6756572  69.7855780  32.2435818   5.0228023  70.0331687  31.5888270
   6.0536952  68.9719918  31.9098295   2.6363746  79.8215473  26.3463988
   2.8186141  79.0037129  26.8091740   3.4596732  80.0383165  25.9088878
   2.9705912  78.7483658  23.6079036   3.4993678  78.2376113  22.9949199
   3.2334131  78.4326188  24.4724569   1.7244145  70.5275591  38.7301855
   1.0484782  70.4269720  39.4004230   2.5471779  70.3714804  39.1937852
   5.3177803  76.6603776  38.8208125   5.8617707  77.2733734  38.3263080
   4.7364647  77.2183354  39.3375138   3.6035316  79.7824494  29.9523153
   3.4786455  78.9814234  29.4434098   4.2614407  80.2770687  29.4637123
   5.6670224  77.5833514  31.5802703   4.7200559  77.4638865  31.5081030
   6.0152997  76.6956012  31.6628964   2.6716657  77.3786230  27.7807055
   2.5241620  76.4502937  27.9614625   3.4970151  77.4006321  27.2964130
   6.2750779  78.2014789  28.8671928   7.1997327  77.9957650  28.7296379
   6.1066082  77.9531190  29.7761269   2.6678172  65.2324068  22.7739172
   2.8841786  66.1148706  22.4728001   2.1872239  64.8410281  22.0444814
   1.1199907  65.6149669  31.4443934   0.8617684  66.5366740  31.4428264
   0.5884947  65.2180104  32.1344398   6.0646095  78.7200456  24.2234019
   6.2382973  78.1546879  23.4707872   6.5574987  79.5201351  24.0413509
   1.5401862  61.7481620  27.8045097   1.5623559  61.8120953  26.8497076
   1.9569921  60.9086128  27.9985603  11.9185486  71.4836879  25.8424319
  12.3616633  70.7344204  25.4443442  11.0411997  71.4747016  25.4598051
   7.0521268  78.0367221  21.3230918   7.7472172  78.6573913  21.5418232
   7.3944418  77.1862572  21.5983296   8.9512691  75.4866926  22.8518248
   9.4764015  75.8254199  22.1267569   8.8635043  74.5513941  22.6681383
   0.6132740  79.4001000  34.9808125   0.9219866  79.1550147  35.8530825
   1.4108222  79.6047638  34.4926995   8.6406597  76.1199830  38.1569446
   7.8502141  76.1023969  37.6173946   8.4039952  76.6588123  38.9118483
   8.7604472  72.9692296  35.4702175   8.8102477  72.8042304  36.4117698
   8.6518395  72.1019555  35.0800056   6.0508234  68.9523224  36.7861482
   6.9518097  68.8129689  36.4945479   6.1256209  69.1177679  37.7259659
  10.2622669  75.3889238  35.7144197   9.9707477  75.7519218  36.5507657
   9.6494800  74.6756246  35.5357529  11.4618351  72.9542117  28.2346767
  12.2965243  73.3931922  28.3984327  11.5977480  72.4780771  27.4155013
   8.5109857  70.5121852  34.1824255   8.9863979  70.7049499  33.3743106
   7.5875422  70.5681038  33.9367638   3.0890074  62.5469696  33.1480088
   3.6072017  63.2830723  32.8226577   2.7345206  62.8533689  33.9826848
   3.3402668  58.9669978  28.6680985   3.6204422  58.2993167  29.2941412
   4.1253275  59.1599074  28.1555649   7.2111526  67.3887612  32.4152560
   8.1628949  67.4885710  32.4364784   7.0414977  66.5965881  32.9250644
   5.2325906  64.4743196  32.6011961   4.6375838  64.7548208  31.9058450
   4.9475602  64.9637097  33.3728702   6.9921413  77.7431993  18.3218541
   6.9135044  77.4091856  19.2154299   7.8131079  78.2353761  18.3210013
   9.6899604  70.6093732  31.5294860   9.6575924  69.6709733  31.7154544
  10.3000228  70.6877769  30.7960685   9.8394092  67.4004776  31.5753143
   9.3233141  66.6163232  31.3883072  10.7234041  67.0723492  31.7399662
   7.5004819  61.1445791  27.5348956   7.3029640  60.8360879  28.4192288
   8.1104525  61.8707430  27.6646885  15.5076154  71.6709739  30.6700897
  16.2379542  71.4095027  31.2308600  14.8983099  70.9338461  30.7102965
  13.5891451  69.8117602  31.2675348  12.8624614  69.6773566  30.6591839
  13.1738738  70.1194430  32.0732066   1.4121627  73.5307531  39.0322721
   2.3324637  73.7086130  39.2262767   1.3771210  72.5863577  38.8802420
   1.3287918  61.9476651  23.6621190   0.5188646  61.6023736  24.0376436
   2.0172335  61.6384195  24.2508802   3.2578466  61.0254698  25.2845487
   3.8109505  61.4450151  25.9435510   3.4948552  60.0990446  25.3268443
   6.6357273  63.1355223  24.7924151   6.0555942  63.7940027  24.4102204
   6.3693206  62.3132568  24.3811569   5.0860839  62.5360281  26.9945472
   5.5860618  62.6476815  26.1859790   5.7296447  62.2321334  27.6346280
   5.4182151  65.2955314  23.8480499   4.5308006  65.5804964  23.6300694
   5.8336140  65.1349077  23.0007776   8.7696687  65.3201834  27.5634839
   9.5457077  65.8098287  27.8359456   8.0444821  65.7459889  28.0206708
  11.2069246  66.0329454  28.6208779  11.8013737  65.7925190  27.9102088
  11.2795829  65.3136584  29.2482316   5.3923175  70.8109849  24.0630790
   5.3358376  71.2678401  23.2238422   5.9451517  70.0500534  23.8853632
   9.2027981  66.5999581  24.8880909   8.9464915  66.1996217  25.7189117
   8.5780849  67.3143375  24.7631048  13.5140319  69.3395655  27.3952201
  12.9539877  69.4088844  28.1683763  12.9083822  69.1636639  26.6751697
   6.4712062  75.4982517  19.9926980   7.3057666  75.0663716  19.8104454
   6.3096405  75.3264531  20.9203874   6.1257954  72.0014631  21.3583319
   6.0706758  71.8358902  20.4171763   5.5004009  72.7090664  21.5145509
   3.4403861  74.3063543  40.6836882   4.3095021  74.4804195  40.3223517
   2.9610613  75.1257959  40.5612611   3.2506199  58.0965516  25.1914574
   2.4838595  57.5424003  25.3371256   3.6616904  58.1687385  26.0528726
  15.0996337  86.0152168  30.0882156  15.7374747  85.8958916  29.3845496
  14.9817180  86.9633012  30.1470108  11.9086043  85.9679597  30.0243681
  11.5704555  85.8520661  29.1364216  12.7775811  85.5670762  30.0044687
   7.7672859  87.8215073  26.0140572   7.2037724  87.7305010  25.2456860
   7.6525254  87.0014977  26.4943064  12.3905826  87.1214448  35.9829886
  12.3794467  86.7267247  35.1110390  12.5526466  86.3880521  36.5763658
   5.3137291  89.3166265  28.8524792   6.1058583  88.9757089  28.4371092
   5.5533941  89.4261240  29.7726946   9.1113087  89.9051560  34.9309070
   8.8202953  90.8097191  34.8155737   9.7470072  89.9468088  35.6453140
  10.0369294  87.2828409  31.5210430  10.6332866  87.0584431  30.8067393
  10.0944266  86.5413154  32.1235878  14.6537605  83.7403622  27.1635364
  15.4400695  83.3223046  26.8125781  14.9176310  84.6449715  27.3317013
  14.8247683  89.1776473  21.8624021  14.1893516  89.2511099  22.5744926
  14.4945089  89.7670071  21.1843100  20.0546033  83.6778856  28.0668343
  20.7871205  83.1078072  28.3006172  19.2985388  83.2900456  28.5074848
  11.6722152  86.1006097  25.2631685  11.3080360  85.5736718  25.9744607
  12.5289268  85.7104566  25.0898171  17.5771453  77.3900430  32.5262951
  17.2454778  78.2595841  32.3024166  16.9817066  77.0736714  33.2056982
  11.3127639  81.1295997  20.2593034  11.4802042  81.9976233  20.6263505
  11.1224808  81.2923278  19.3354323  14.0702972  89.5912976  31.9258864
  13.7703696  90.4938014  31.8174671  13.7254032  89.3245159  32.7780017
   7.5215454  86.0426772  27.9595569   6.5965950  85.9102987  28.1673260
   7.7699867  86.8220992  28.4565511  17.4700116  82.1095516  29.6056301
  16.5616994  82.0410924  29.3115062  17.4187712  82.5867461  30.4338127
  11.2916860  83.5853654  21.2439701  11.1716485  84.0310705  22.0825181
  10.5969449  83.9338972  20.6853239   4.8824265  85.6860046  28.7939358
   5.0116646  85.9394525  29.7078769   4.2021716  86.2787754  28.4744013
  11.5440982  83.5285161  37.5491199  10.7674316  84.0879082  37.5394063
  12.1831545  84.0141944  38.0706069  19.3361763  80.3111954  31.3834175
  18.6936143  80.6044487  30.7373970  18.8316691  80.1964875  32.1887372
  16.9901926  84.0575127  22.0720035  17.9019782  84.2902514  21.8967732
  16.4811573  84.6412172  21.5095113   9.7987354  86.3370615  37.1109166
  10.5402039  86.8755659  36.8343989   9.0924340  86.9636904  37.2680718
  15.2742694  88.4799755  35.7081327  15.6826050  88.0382166  34.9635960
  14.5519955  87.9052383  35.9615520  11.6273764  83.4172362  33.0814884
  12.4734959  83.8411776  33.2249533  11.5672402  82.7605986  33.7753447
  15.5971509  89.0400946  29.4633616  14.9680371  89.2046660  28.7609684
  15.2097171  89.4542555  30.2344580  19.4760741  89.9755384  26.8177980
  18.7911779  90.3554285  26.2675013  19.5604590  90.5850710  27.5509928
  14.7773209  81.0776730  34.7396058  14.5334141  81.8318791  34.2030334
  15.0533140  81.4562078  35.5743305  16.7311672  87.6215343  33.4173323
  16.9428567  88.2647103  32.7407704  16.6841420  86.7877659  32.9495253
  14.3337901  80.2333163  30.3209896  13.4722380  80.5314417  30.6126633
  14.3600336  80.4503562  29.3890928  11.1499471  88.7775354  26.7283701
  11.6137816  89.0563057  25.9388324  10.8856269  87.8758799  26.5456792
   8.0423552  88.3246835  29.6663464   8.6124909  88.7534104  29.0280949
   8.6331663  88.0429420  30.3647650  10.0868357  84.8998506  23.5373266
  10.7892400  85.3519550  24.0047193   9.7548985  84.2582325  24.1653159
   8.5348718  83.4910263  37.9124476   7.9047379  84.1726544  38.1459873
   8.4284806  83.3793345  36.9677614   3.8293691  83.1582059  28.8390400
   3.0392745  83.4139588  28.3630511   4.3204938  83.9730397  28.9442440
  17.8457500  90.4987298  31.5895681  18.6674944  90.0967485  31.3078362
  17.8419903  90.3955532  32.5411797   5.7808436  83.5226638  25.7973877
   4.9839599  83.6345332  26.3157372   5.5534028  83.8613290  24.9314767
  11.6114104  90.0471341  33.7456391  11.6758536  90.5091749  34.5814563
  10.9025027  89.4168706  33.8738701   2.1131394  83.4112549  31.2705391
   2.3639432  84.2959559  31.5362967   2.6490942  83.2317151  30.4980483
  25.9363493  86.8426047  27.9380652  25.1827202  86.2733445  27.7824657
  26.0711034  86.8088711  28.8851287  11.3262121  91.7139449  23.6135372
  11.1907796  92.5590985  24.0420219  11.8671934  91.9158727  22.8501305
   7.8129461  77.7931029  40.2749727   7.4196406  77.2397227  40.9497371
   8.6295601  78.1041607  40.6656244  10.7297422  79.2088908  37.8669983
  11.4707135  79.8096061  37.7874446  10.9615345  78.4666546  37.3088026
   5.8738760  84.3945275  36.1448213   5.7592275  83.4930532  36.4455312
   5.0183278  84.6408972  35.7933030  12.9530598  92.3363015  37.7435714
  12.5094452  91.5499394  37.4256618  13.6147811  92.5242166  37.0779604
   7.7117719  93.8658817  32.2696392   8.2625144  93.7375880  31.4973386
   6.8729195  94.1653706  31.9191285  15.0511836  92.6165815  35.7717115
  15.0330311  93.4374696  35.2797384  15.9731756  92.4919891  35.9967256
  11.5084890  90.1309945  36.6140623  12.0413227  89.3698233  36.3839931
  10.9798971  89.8383597  37.3564778  14.6754585  75.2370011  32.1434265
  14.3318854  76.1271653  32.0673376  15.0433547  75.0471668  31.2803850
  14.6404867  85.2278622  20.6506700  14.1251491  85.9983227  20.8895088
  14.3682176  84.5543758  21.2739762  12.2251979  80.0728323  25.7091939
  11.3693575  79.6835173  25.5297577  12.6378930  80.1520284  24.8491724
  13.7551125  77.6074666  30.1083498  13.2515921  77.5704801  29.2951304
  14.0481732  78.5167409  30.1680155   9.9994011  77.6913396  29.1149680
  10.8647008  77.4956204  28.7555569  10.0671520  77.4623747  30.0419037
  19.6139142  87.9810977  22.5859874  18.8368584  87.6422136  22.1415036
  20.2930623  87.9863600  21.9114839  14.4291171  83.1005714  22.4766481
  14.1241306  83.4151863  23.3276625  15.3821613  83.1787134  22.5193814
  12.8737602  89.2595937  24.1259435  12.3458964  88.5248697  23.8132673
  12.3725105  90.0370614  23.8799404  17.8530449  87.4544958  29.2426482
  17.1954123  88.1444219  29.3306610  18.6570848  87.8441390  29.5860468
   7.6056330  79.9215604  26.4866047   8.1800082  79.6990785  25.7539240
   8.1927313  79.9904298  27.2394648  16.6635907  85.8089331  27.2930423
  17.1767789  86.4419322  27.7952133  17.3137131  85.2090526  26.9273783
   9.9078998  76.7956853  25.2141116   9.2543410  76.4805870  24.5897731
   9.8659472  76.1732593  25.9400939  13.1416738  83.2838786  29.5388764
  12.2239300  83.5053733  29.3810452  13.5576882  83.3585097  28.6800471
  13.9251786  84.6830202  24.6691444  14.6723605  85.1951599  24.3598566
  14.1943375  84.3614254  25.5295838  12.1978436  87.1788742  21.6518398
  11.2889655  86.8947775  21.7490868  12.2273520  87.5987821  20.7921705
  17.4297704  90.7895332  25.4209566  16.9760031  89.9486242  25.4774756
  16.7991670  91.4256730  25.7584346  16.3730623  81.7187318  26.6510233
  15.6353380  81.2064704  26.9820476  16.6257397  81.2787700  25.8393510
  15.8730643  92.6271829  26.3559384  16.1653617  93.1876886  25.6371750
  16.3829263  92.9200390  27.1112543  16.4742250  74.4963570  27.2452003
  16.7801127  73.6360933  26.9577918  17.1994855  75.0881190  27.0450997
  10.7463330  84.7917363  27.7528194  10.8011940  83.8391199  27.6770670
   9.9354532  84.9476802  28.2369492   8.6855690  83.4094423  25.5118573
   7.8723556  83.7088593  25.9183765   9.1814684  83.0150112  26.2293055
  10.8364268  93.4052180  27.4452837  10.7940447  93.6313026  26.5161369
  11.7526967  93.1715554  27.5938639  14.2829902  83.8736247  34.3433467
  14.6379289  84.1007720  35.2027932  14.9302033  84.2054624  33.7210722
  20.0127639  86.9954683  25.0482796  19.8745537  87.1856279  24.1203985
  19.6563858  87.7574066  25.5050847   8.1769765  80.9812778  31.1279808
   8.8169144  80.8401537  30.4302771   7.3447295  80.6947292  30.7518410
  20.0397018  89.0631210  30.0594067  20.4733525  88.9706499  30.9077121
  20.7528599  89.0388711  29.4214083   8.9530069  90.2815209  27.2414800
   9.7470667  89.7865529  27.0397375   8.2421761  89.7533072  26.8782506
  13.7724913  92.6633304  31.5927168  13.8261935  93.2324241  32.3604884
  12.9039695  92.8335189  31.2281205   5.1798381  80.9513103  25.9052794
   5.4405199  81.8658437  25.7961955   6.0015554  80.4837546  26.0549407
   6.6523307  82.3650861  33.0751619   7.3246360  82.1568223  32.4264268
   5.8253093  82.1672947  32.6356851  20.9012568  89.1054911  32.5926952
  21.0948458  90.0100721  32.8386227  20.8013186  88.6462330  33.4265538
  12.5548879  78.9912801  35.0917280  11.9076794  79.6902751  34.9981756
  13.3249894  79.4248945  35.4593528  15.9627677  89.2561654  38.1667833
  15.8113183  89.0272205  37.2497917  15.9532356  90.2132255  38.1799178
  12.7313013  86.8293566  33.1514100  13.6605073  86.9804726  32.9783067
  12.3104043  86.9177587  32.2962746  11.5301345  90.8544231  30.9212637
  11.3912430  90.4863015  31.7938575  10.7415941  91.3691870  30.7496595
  13.0806560  90.2325833  28.3101475  12.7456392  90.1926603  29.2059125
  12.5810506  89.5670549  27.8371885   7.0550804  85.6393463  33.8354056
   6.9170602  84.9073702  34.4365595   7.9655727  85.5502364  33.5538244
  16.0165752  87.5781868  18.5838535  15.3994922  86.8528696  18.4871587
  15.5482240  88.3391228  18.2405609   9.6833105  85.3513423  33.3237736
  10.3932723  84.7106615  33.2824354   9.6402413  85.6026318  34.2463917
  17.6719883  92.2880776  36.2444315  17.6132429  91.6039996  35.5774898
  18.0739402  93.0299766  35.7924941   8.3962038  82.3378641  35.1433375
   7.8599396  81.8869379  35.7954972   7.8078747  82.4724550  34.4003840
  17.6737290  90.2520360  34.4758295  16.7864069  89.9146282  34.5984694
  18.2435842  89.5203391  34.7127060   4.1301160  81.4734648  32.2286370
   4.0459348  80.8660318  31.4936780   3.3083866  81.9643667  32.2295866
  11.2038444  94.9121812  31.4419538  11.1308615  95.7176784  31.9538842
  10.7615837  95.1113778  30.6167559  14.3024874  79.9588212  27.5956565
  14.7993573  79.2058174  27.2757635  13.5311855  79.9952529  27.0299774
  22.1554631  85.6628577  29.2374856  22.1444507  86.5453293  28.8668789
  21.2872010  85.3100128  29.0429393  13.6637127  94.8108646  33.5977697
  14.3765100  95.4456111  33.5253598  13.1727156  94.9072512  32.7817698
  15.3854654  88.7159899  25.1694988  14.4510933  88.8361362  24.9999693
  15.5631323  87.8132366  24.9054998  10.8859842  82.1005595  27.3228249
  10.5157630  81.5476635  28.0109155  11.3818935  81.4963728  26.7703249
  18.7727206  84.5577218  25.7045022  19.2387658  85.3905210  25.6305325
  19.2234706  84.0922200  26.4090281   8.7149041  92.5603090  34.4183267
   9.4158500  93.1939573  34.5712662   8.2444156  92.9017821  33.6578907
  16.8403437  90.9021040  22.7031174  17.1163281  90.7877634  23.6125048
  15.9707935  90.5038525  22.6643347  16.7443868  76.9257805  29.7435924
  15.8306948  77.1562032  29.9118131  17.1736970  77.0096249  30.5949956
  16.5150327  85.1147697  32.2435818  15.8621777  85.3623605  31.5888270
  16.8930707  84.3011836  31.9098295  13.4757501  95.1507391  26.3463988
  13.6579895  94.3329046  26.8091740  14.2990487  95.3675083  25.9088878
  13.8099666  94.0775576  23.6079036  14.3387433  93.5668030  22.9949199
  14.0727886  93.7618106  24.4724569  12.5637900  85.8567508  38.7301855
  11.8878537  85.7561638  39.4004230  13.3865534  85.7006722  39.1937852
   4.3116759  92.0939445  31.3514370   4.8970196  91.3483133  31.4842274
   4.1141597  92.4043402  32.2351034  11.3060683  97.1634436  32.9659471
  11.8578991  97.3266057  33.7308556  11.6466876  97.7538874  32.2939496
   6.2825176  79.5109586  33.5681355   6.3466502  80.3724417  33.1558753
   6.2192296  78.8983587  32.8353714   5.7577449  81.5832718  37.2154390
   6.3849487  81.2009796  37.8291914   4.9005367  81.3646920  37.5810082
  16.1571557  91.9895693  38.8208125  16.7011461  92.6025652  38.3263080
  15.5758402  92.5475272  39.3375138  14.4429070  95.1116411  29.9523153
  14.3180210  94.3106151  29.4434098  15.1008161  95.6062605  29.4637123
   6.0637238  81.4665144  29.1300293   5.3423824  82.0801112  28.9907766
   6.8530494  82.0022909  29.0516939  16.5063978  92.9125431  31.5802703
  15.5594314  92.7930783  31.5081030  16.8546752  92.0247930  31.6628964
   8.8663552  78.8019570  35.4040945   9.3897954  79.0481867  36.1667254
   8.6475885  79.6339605  34.9844082   4.2630833  81.0723245  23.2712070
   3.9343539  80.1920624  23.0887176   4.6170204  81.0170914  24.1588459
  13.5110412  92.7078148  27.7807055  13.3635374  91.7794855  27.9614625
  14.3363905  92.7298238  27.2964130   7.3772656  81.3596215  23.6387547
   7.7168729  81.8882136  22.9166156   7.8244777  81.6976621  24.4146114
  17.1144534  93.5306706  28.8671928  18.0391081  93.3249568  28.7296379
  16.9459837  93.2823108  29.7761269  10.0716097  79.7433266  33.0890615
   9.7312917  78.9441079  33.4911295   9.3655103  80.0434976  32.5167449
  10.7232569  76.8282578  31.5417938  11.5458638  76.3543056  31.4196829
  10.9670632  77.6073062  32.0416625   9.3640803  79.8570836  21.8380840
  10.0849166  80.2352089  21.3344557   8.7406107  80.5759713  21.9415818
  13.5071926  80.5615985  22.7739172  13.7235540  81.4440623  22.4728001
  13.0265993  80.1702199  22.0444814   8.2471147  83.5201699  29.3509917
   8.1015728  83.8342002  30.2434199   7.7696351  84.1386599  28.7980816
  10.1067530  80.5104247  29.3990807  10.0929099  79.6145340  29.0623105
  10.8239958  80.5174910  30.0329093  11.9593661  80.9441587  31.4443934
  11.7011439  81.8658657  31.4428264  11.4278701  80.5472021  32.1344398
  16.9039850  94.0492374  24.2234019  17.0776727  93.4838796  23.4707872
  17.3968741  94.8493269  24.0413509   2.7216810  86.0607043  32.2897578
   2.1770278  86.8366851  32.4217853   3.5996159  86.4077847  32.1316700
   9.5104426  79.3918627  24.6678377   9.6320337  78.4635273  24.8669264
   9.2206469  79.4057313  23.7556692  12.3795617  77.0773537  27.8045097
  12.4017313  77.1412870  26.8497076  12.7963676  76.2378046  27.9985603
  22.7579241  86.8128797  25.8424319  23.2010387  86.0636122  25.4443442
  21.8805751  86.8038933  25.4598051  17.8915022  93.3659138  21.3230918
  18.5865927  93.9865831  21.5418232  18.2338172  92.5154490  21.5983296
   3.5082831  85.1876939  35.1827735   2.7664567  85.3359575  35.7692366
   3.1875576  85.4485205  34.3194485  19.7906445  90.8158844  22.8518248
  20.3157769  91.1546117  22.1267569  19.7028798  89.8805859  22.6681383
  11.4526494  94.7292917  34.9808125  11.7613621  94.4842064  35.8530825
  12.2501976  94.9339556  34.4926995  11.4747106  96.8830827  27.2113502
  11.0352096  96.3907206  27.9046358  12.2255223  96.3403795  26.9705577
   8.9220978  92.4268836  29.2835803   8.3000988  91.7639541  28.9838031
   9.5925845  92.4529968  28.6009451   8.9945506  80.9050624  38.8768309
   9.0433661  81.7812747  38.4946079   9.5368020  80.3628017  38.3039953
  19.4800351  91.4491747  38.1569446  18.6895895  91.4315886  37.6173946
  19.2433706  91.9880041  38.9118483  19.5998227  88.2984214  35.4702175
  19.6496231  88.1334221  36.4117698  19.4912150  87.4311473  35.0800056
  16.8901989  84.2815142  36.7861482  17.7911852  84.1421607  36.4945479
  16.9649963  84.4469597  37.7259659  11.2244794  81.6581997  35.6314668
  10.3548104  81.9515563  35.3597257  11.4604275  82.2422442  36.3521932
  21.1016423  90.7181155  35.7144197  20.8101232  91.0811136  36.5507657
  20.4888555  90.0048164  35.5357529  22.3012106  88.2834035  28.2346767
  23.1358997  88.7223839  28.3984327  22.4371234  87.8072688  27.4155013
  19.3503612  85.8413770  34.1824255  19.8257733  86.0341416  33.3743106
  18.4269177  85.8972956  33.9367638  13.9283828  77.8761614  33.1480088
  14.4465772  78.6122640  32.8226577  13.5738961  78.1825607  33.9826848
  14.1796422  74.2961896  28.6680985  14.4598176  73.6285085  29.2941412
  14.9647029  74.4890992  28.1555649  18.0505281  82.7179530  32.4152560
  19.0022703  82.8177628  32.4364784  17.8808731  81.9257799  32.9250644
  16.0719660  79.8035113  32.6011961  15.4769592  80.0840126  31.9058450
  15.7869357  80.2929014  33.3728702  17.8315167  93.0723910  18.3218541
  17.7528799  92.7383774  19.2154299  18.6524834  93.5645678  18.3210013
  20.5293358  85.9385650  31.5294860  20.4969678  85.0001650  31.7154544
  21.1393982  86.0169686  30.7960685  20.6787847  82.7296693  31.5753143
  20.1626896  81.9455150  31.3883072  21.5627795  82.4015410  31.7399662
  18.3398574  76.4737709  27.5348956  18.1423395  76.1652797  28.4192288
  18.9498279  77.1999348  27.6646885  26.3469908  87.0001657  30.6700897
  27.0773297  86.7386945  31.2308600  25.7376854  86.2630379  30.7102965
  24.4285205  85.1409519  31.2675348  23.7018369  85.0065484  30.6591839
  24.0132492  85.4486348  32.0732066  12.2515382  88.8599449  39.0322721
  13.1718391  89.0378048  39.2262767  12.2164965  87.9155494  38.8802420
   1.4697547  84.0538043  27.9575995   1.1500331  83.2003351  27.6650369
   0.9230975  84.2686621  28.7133963   5.2477454  86.7700484  31.6745502
   5.4663464  87.7017591  31.6933536   5.6603228  86.4108458  32.4600306
  12.1681672  77.2768569  23.6621190  11.3582400  76.9315654  24.0376436
  12.8566089  76.9676113  24.2508802  14.0972220  76.3546616  25.2845487
  14.6503259  76.7742069  25.9435510  14.3342307  75.4282364  25.3268443
  10.1205320  82.3433689  41.0648251  10.0202047  83.2928046  40.9960342
   9.9026862  82.0151928  40.1924321   9.3218391  79.5918614  17.6488928
  10.1837555  79.9173513  17.9084746   9.5068735  78.8050110  17.1361994
   1.3385807  87.6740954  29.9269117   0.6449278  87.2594907  29.4139071
   2.0858798  87.7161491  29.3302536  17.4751027  78.4647141  24.7924151
  16.8949697  79.1231945  24.4102204  17.2086960  77.6424485  24.3811569
  15.9254594  77.8652199  26.9945472  16.4254372  77.9768733  26.1859790
  16.5690202  77.5613251  27.6346280   9.9836590  85.7730828  39.8813313
   9.5003671  86.5731188  40.0877202  10.0697529  85.7838773  38.9280757
   3.2522549  87.6059208  27.8035132   3.2293237  87.7046895  26.8517015
   3.5623186  88.4524359  28.1252298   5.9109927  89.6635363  31.9181746
   6.8653181  89.6319305  31.8511678   5.7122451  89.2025987  32.7331972
   6.5009309  88.2336479  34.4852544   7.3202198  88.7280558  34.5087381
   6.7746117  87.3168447  34.4570111  16.2575906  80.6247231  23.8480499
  15.3701761  80.9096882  23.6300694  16.6729895  80.4640995  23.0007776
  19.6090442  80.6493752  27.5634839  20.3850832  81.1390205  27.8359456
  18.8838576  81.0751806  28.0206708  22.0463000  81.3621371  28.6208779
  22.6407491  81.1217107  27.9102088  22.1189584  80.6428502  29.2482316
  16.2316929  86.1401767  24.0630790  16.1752131  86.5970319  23.2238422
  16.7845272  85.3792452  23.8853632  20.0421735  81.9291499  24.8880909
  19.7858669  81.5288135  25.7189117  19.4174603  82.6435293  24.7631048
  24.3534073  84.6687572  27.3952201  23.7933631  84.7380762  28.1683763
  23.7477576  84.4928557  26.6751697  17.3105816  90.8274435  19.9926980
  18.1451420  90.3955634  19.8104454  17.1490159  90.6556449  20.9203874
  16.9651709  87.3306548  21.3583319  16.9100512  87.1650820  20.4171763
  16.3397764  88.0382581  21.5145509   1.7544224  82.5674613  35.1844741
   2.4003087  82.0573567  35.6731966   1.5461375  83.3043294  35.7588166
  14.2797616  89.6355460  40.6836882  15.1488775  89.8096113  40.3223517
  13.8004367  90.4549877  40.5612611  10.2747834  76.8314657  20.9368637
  10.2626504  77.7756497  21.0936908  11.1671256  76.6484803  20.6428098
   8.4483796  96.7552561  32.3626315   9.3511043  96.7876172  32.6792810
   8.2221166  95.8253012  32.3772651  10.2037398  95.5083548  29.0236394
   9.2533029  95.5085409  28.9100766  10.5069884  94.7616282  28.5072428
  14.0899953  73.4257434  25.1914574  13.3232349  72.8715921  25.3371256
  14.5010658  73.4979303  26.0528726   6.0941715  79.7142230  39.2819755
   6.9573176  79.3579035  39.4923080   5.5207125  79.3756125  39.9695160
  25.9390091 101.3444086  30.0882156  26.5768501 101.2250834  29.3845496
  25.8210934 102.2924930  30.1470108  22.7479798 101.2971514  30.0243681
  22.4098309 101.1812579  29.1364216  23.6169566 100.8962679  30.0044687
  25.4931360  99.0695540  27.1635364  26.2794449  98.6514963  26.8125781
  25.7570064  99.9741632  27.3317013  30.8939787  99.0070773  28.0668343
  31.6264959  98.4369990  28.3006172  30.1379143  98.6192374  28.5074848
  22.5115907 101.4298015  25.2631685  22.1474114 100.9028636  25.9744607
  23.3683023 101.0396484  25.0898171  28.4165207  92.7192347  32.5262951
  28.0848532  93.5887758  32.3024166  27.8210821  92.4028631  33.2056982
  22.1521394  96.4587914  20.2593034  22.3195796  97.3268151  20.6263505
  21.9618563  96.6215196  19.3354323  28.3093871  97.4387434  29.6056301
  27.4010748  97.3702842  29.3115062  28.2581467  97.9159378  30.4338127
  22.1310615  98.9145572  21.2439701  22.0110240  99.3602623  22.0825181
  21.4363203  99.2630890  20.6853239  22.3834737  98.8577079  37.5491199
  21.6068071  99.4170999  37.5394063  23.0225300  99.3433862  38.0706069
  30.1755517  95.6403872  31.3834175  29.5329897  95.9336405  30.7373970
  29.6710446  95.5256792  32.1887372  27.8295681  99.3867045  22.0720035
  28.7413537  99.6194432  21.8967732  27.3205328  99.9704089  21.5095113
  22.4667519  98.7464280  33.0814884  23.3128714  99.1703693  33.2249533
  22.4066156  98.0897904  33.7753447  25.6166964  96.4068648  34.7396058
  25.3727896  97.1610709  34.2030334  25.8926894  96.7853996  35.5743305
  27.5705427 102.9507260  33.4173323  27.7822322 103.5939020  32.7407704
  27.5235175 102.1169577  32.9495253  25.1731656  95.5625081  30.3209896
  24.3116135  95.8606335  30.6126633  25.1994090  95.7795480  29.3890928
  20.9262111 100.2290424  23.5373266  21.6286154 100.6811468  24.0047193
  20.5942740  99.5874243  24.1653159  19.3742473  98.8202181  37.9124476
  18.7441133  99.5018461  38.1459873  19.2678560  98.7085262  36.9677614
  14.6687445  98.4873977  28.8390400  13.8786499  98.7431505  28.3630511
  15.1598692  99.3022315  28.9442440  16.6202190  98.8518556  25.7973877
  15.8233354  98.9637250  26.3157372  16.3927783  99.1905208  24.9314767
  36.7757248 102.1717964  27.9380652  36.0220956 101.6025362  27.7824657
  36.9104789 102.1380629  28.8851287  18.6523215  93.1222946  40.2749727
  18.2590161  92.5689145  40.9497371  19.4689356  93.4333525  40.6656244
  21.5691176  94.5380826  37.8669983  22.3100890  95.1387979  37.7874446
  21.8009099  93.7958463  37.3088026  25.5148339  90.5661929  32.1434265
  25.1712609  91.4563570  32.0673376  25.8827302  90.3763586  31.2803850
  25.4798622 100.5570540  20.6506700  24.9645245 101.3275144  20.8895088
  25.2075930  99.8835676  21.2739762  23.0645733  95.4020240  25.7091939
  22.2087329  95.0127091  25.5297577  23.4772685  95.4812201  24.8491724
  24.5944880  92.9366584  30.1083498  24.0909675  92.8996719  29.2951304
  24.8875487  93.8459326  30.1680155  20.8387766  93.0205313  29.1149680
  21.7040762  92.8248122  28.7555569  20.9065274  92.7915665  30.0419037
  30.4532896 103.3102894  22.5859874  29.6762339 102.9714054  22.1415036
  31.1324377 103.3155517  21.9114839  25.2684925  98.4297632  22.4766481
  24.9635061  98.7443781  23.3276625  26.2215367  98.5079052  22.5193814
  28.6924203 102.7836876  29.2426482  28.0347877 103.4736137  29.3306610
  29.4964602 103.1733307  29.5860468  18.4450085  95.2507521  26.4866047
  19.0193837  95.0282703  25.7539240  19.0321067  95.3196216  27.2394648
  27.5029662 101.1381248  27.2930423  28.0161544 101.7711240  27.7952133
  28.1530886 100.5382444  26.9273783  20.7472752  92.1248770  25.2141116
  20.0937165  91.8097787  24.5897731  20.7053226  91.5024511  25.9400939
  23.9810493  98.6130704  29.5388764  23.0633054  98.8345651  29.3810452
  24.3970636  98.6877014  28.6800471  24.7645540 100.0122119  24.6691444
  25.5117359 100.5243517  24.3598566  25.0337130  99.6906172  25.5295838
  27.2124378  97.0479236  26.6510233  26.4747134  96.5356622  26.9820476
  27.4651151  96.6079617  25.8393510  27.3136005  89.8255488  27.2452003
  27.6194882  88.9652851  26.9577918  28.0388610  90.4173108  27.0450997
  21.5857085 100.1209281  27.7528194  21.6405694  99.1683117  27.6770670
  20.7748287 100.2768720  28.2369492  19.5249445  98.7386340  25.5118573
  18.7117310  99.0380511  25.9183765  20.0208439  98.3442029  26.2293055
  25.1223656  99.2028165  34.3433467  25.4773044  99.4299638  35.2027932
  25.7695787  99.5346542  33.7210722  30.8521393 102.3246601  25.0482796
  30.7139292 102.5148197  24.1203985  30.4957612 103.0865984  25.5050847
  19.0163519  96.3104696  31.1279808  19.6562899  96.1693455  30.4302771
  18.1841050  96.0239209  30.7518410  30.8790773 104.3923128  30.0594067
  31.3127279 104.2998417  30.9077121  31.5922353 104.3680628  29.4214083
  16.0192136  96.2805021  25.9052794  16.2798953  97.1950354  25.7961955
  16.8409308  95.8129464  26.0549407  17.4917061  97.6942778  33.0751619
  18.1640115  97.4860140  32.4264268  16.6646848  97.4964864  32.6356851
  31.7406322 104.4346829  32.5926952  31.9342212 105.3392639  32.8386227
  31.6406941 103.9754248  33.4265538  23.3942633  94.3204719  35.0917280
  22.7470548  95.0194669  34.9981756  24.1643648  94.7540863  35.4593528
  23.5706767 102.1585484  33.1514100  24.4998827 102.3096644  32.9783067
  23.1497797 102.2469505  32.2962746  20.5226859 100.6805340  33.3237736
  21.2326478 100.0398533  33.2824354  20.4796167 100.9318235  34.2463917
  19.2355793  97.6670558  35.1433375  18.6993150  97.2161297  35.7954972
  18.6472501  97.8016467  34.4003840  14.9694914  96.8026566  32.2286370
  14.8853103  96.1952236  31.4936780  14.1477621  97.2935584  32.2295866
  25.1418628  95.2880130  27.5956565  25.6387328  94.5350092  27.2757635
  24.3705610  95.3244446  27.0299774  32.9948385 100.9920495  29.2374856
  32.9838262 101.8745211  28.8668789  32.1265765 100.6392046  29.0429393
  21.7253597  97.4297513  27.3228249  21.3551384  96.8768553  28.0109155
  22.2212689  96.8255646  26.7703249  29.6120960  99.8869136  25.7045022
  30.0781412 100.7197128  25.6305325  30.0628461  99.4214118  26.4090281
  27.5837623  92.2549723  29.7435924  26.6700703  92.4853950  29.9118131
  28.0130724  92.3388167  30.5949956  27.3544081 100.4439615  32.2435818
  26.7015532 100.6915522  31.5888270  27.7324461  99.6303753  31.9098295
  23.4031654 101.1859426  38.7301855  22.7272291 101.0853555  39.4004230
  24.2259288 101.0298640  39.1937852  17.1218930  94.8401503  33.5681355
  17.1860257  95.7016334  33.1558753  17.0586051  94.2275505  32.8353714
  16.5971203  96.9124636  37.2154390  17.2243242  96.5301713  37.8291914
  15.7399122  96.6938838  37.5810082  16.9030993  96.7957062  29.1300293
  16.1817579  97.4093029  28.9907766  17.6924249  97.3314826  29.0516939
  19.7057306  94.1311488  35.4040945  20.2291708  94.3773785  36.1667254
  19.4869640  94.9631523  34.9844082  15.1024587  96.4015163  23.2712070
  14.7737294  95.5212542  23.0887176  15.4563958  96.3462831  24.1588459
  18.2166411  96.6888132  23.6387547  18.5562483  97.2174054  22.9166156
  18.6638531  97.0268539  24.4146114  20.9109851  95.0725183  33.0890615
  20.5706672  94.2732996  33.4911295  20.2048858  95.3726894  32.5167449
  21.5626323  92.1574496  31.5417938  22.3852392  91.6834974  31.4196829
  21.8064387  92.9364979  32.0416625  20.2034558  95.1862754  21.8380840
  20.9242920  95.5644007  21.3344557  19.5799862  95.9051631  21.9415818
  24.3465681  95.8907903  22.7739172  24.5629295  96.7732541  22.4728001
  23.8659748  95.4994116  22.0444814  19.0864902  98.8493616  29.3509917
  18.9409483  99.1633919  30.2434199  18.6090106  99.4678517  28.7980816
  20.9461285  95.8396164  29.3990807  20.9322854  94.9437258  29.0623105
  21.6633713  95.8466828  30.0329093  22.7987416  96.2733504  31.4443934
  22.5405193  97.1950575  31.4428264  22.2672456  95.8763939  32.1344398
  20.3498181  94.7210545  24.6678377  20.4714092  93.7927191  24.8669264
  20.0600223  94.7349230  23.7556692  23.2189371  92.4065455  27.8045097
  23.2411068  92.4704788  26.8497076  23.6357430  91.5669964  27.9985603
  33.5972995 102.1420715  25.8424319  34.0404141 101.3928040  25.4443442
  32.7199506 102.1330851  25.4598051  19.8339260  96.2342542  38.8768309
  19.8827416  97.1104665  38.4946079  20.3761774  95.6919935  38.3039953
  30.4391981 103.6276132  35.4702175  30.4889986 103.4626139  36.4117698
  30.3305904 102.7603391  35.0800056  27.7295743  99.6107060  36.7861482
  28.6305606  99.4713524  36.4945479  27.8043718  99.7761514  37.7259659
  22.0638549  96.9873914  35.6314668  21.1941858  97.2807480  35.3597257
  22.2998029  97.5714359  36.3521932  33.1405860 103.6125953  28.2346767
  33.9752752 104.0515757  28.3984327  33.2764989 103.1364606  27.4155013
  30.1897366 101.1705688  34.1824255  30.6651488 101.3633334  33.3743106
  29.2662931 101.2264873  33.9367638  24.7677583  93.2053531  33.1480088
  25.2859526  93.9414558  32.8226577  24.4132715  93.5117525  33.9826848
  25.0190177  89.6253814  28.6680985  25.2991930  88.9577003  29.2941412
  25.8040784  89.8182909  28.1555649  28.8899035  98.0471448  32.4152560
  29.8416458  98.1469545  32.4364784  28.7202485  97.2549716  32.9250644
  26.9113415  95.1327031  32.6011961  26.3163347  95.4132044  31.9058450
  26.6263111  95.6220932  33.3728702  31.3687113 101.2677567  31.5294860
  31.3363433 100.3293568  31.7154544  31.9787737 101.3461604  30.7960685
  31.5181601  98.0588611  31.5753143  31.0020650  97.2747068  31.3883072
  32.4021550  97.7307327  31.7399662  29.1792328  91.8029626  27.5348956
  28.9817149  91.4944715  28.4192288  29.7892034  92.5291265  27.6646885
  37.1863663 102.3293574  30.6700897  37.9167051 102.0678862  31.2308600
  36.5770608 101.5922296  30.7102965  35.2678960 100.4701437  31.2675348
  34.5412123 100.3357402  30.6591839  34.8526247 100.7778265  32.0732066
  23.0075427  92.6060487  23.6621190  22.1976155  92.2607571  24.0376436
  23.6959844  92.2968030  24.2508802  24.9365975  91.6838533  25.2845487
  25.4897013  92.1033987  25.9435510  25.1736061  90.7574281  25.3268443
  20.9599074  97.6725607  41.0648251  20.8595801  98.6219964  40.9960342
  20.7420616  97.3443846  40.1924321  20.1612146  94.9210532  17.6488928
  21.0231309  95.2465430  17.9084746  20.3462490  94.1342028  17.1361994
  28.3144782  93.7939058  24.7924151  27.7343451  94.4523863  24.4102204
  28.0480715  92.9716403  24.3811569  26.7648348  93.1944116  26.9945472
  27.2648127  93.3060651  26.1859790  27.4083956  92.8905169  27.6346280
  27.0969660  95.9539149  23.8480499  26.2095515  96.2388799  23.6300694
  27.5123649  95.7932912  23.0007776  30.4484196  95.9785670  27.5634839
  31.2244586  96.4682122  27.8359456  29.7232330  96.4043724  28.0206708
  32.8856755  96.6913289  28.6208779  33.4801246  96.4509025  27.9102088
  32.9583338  95.9720420  29.2482316  27.0710684 101.4693685  24.0630790
  27.0145885 101.9262236  23.2238422  27.6239026 100.7084369  23.8853632
  30.8815490  97.2583417  24.8880909  30.6252424  96.8580052  25.7189117
  30.2568358  97.9727211  24.7631048  35.1927828  99.9979490  27.3952201
  34.6327385 100.0672679  28.1683763  34.5871331  99.8220475  26.6751697
  27.8045463 102.6598466  21.3583319  27.7494267 102.4942737  20.4171763
  27.1791518 103.3674499  21.5145509  21.1141589  92.1606575  20.9368637
  21.1020258  93.1048415  21.0936908  22.0065010  91.9776720  20.6428098
  24.9293708  88.7549352  25.1914574  24.1626104  88.2007838  25.3371256
  25.3404413  88.8271220  26.0528726  16.9335469  95.0434147  39.2819755
  17.7966931  94.6870952  39.4923080  16.3600880  94.7048042  39.9695160
  36.3542094 105.8953846  32.1434265  36.0106363 106.7855488  32.0673376
  36.7221056 105.7055504  31.2803850  38.1529759 105.1547405  27.2452003
  38.4588636 104.2944769  26.9577918  38.8782364 105.7465026  27.0450997
  35.8583931 104.9545731  28.6680985  36.1385685 104.2868920  29.2941412
  36.6434538 105.1474827  28.1555649  40.0186083 107.1321544  27.5348956
  39.8210904 106.8236632  28.4192288  40.6285788 107.8583183  27.6646885
  35.7687462 104.0841269  25.1914574  35.0019858 103.5299756  25.3371256
  36.1798167 104.1563138  26.0528726   4.2602584  47.6922373  16.8127463
   4.8980994  47.5729121  16.1090803   4.1423427  48.6403217  16.8715415
   1.0692290  47.6449802  16.7488988   0.7310802  47.5290866  15.8609522
   1.9382058  47.2440967  16.7289994   1.5512073  48.7984653  22.7075193
   1.5400714  48.4037452  21.8355697   1.7132712  48.0650726  23.3008965
   9.2152279  45.3549060  14.7913649   9.9477451  44.7848277  15.0251479
   8.4591635  44.9670661  15.2320155   6.7377700  39.0670635  19.2508258
   6.4061024  39.9366046  19.0269473   6.1423313  38.7506919  19.9302288
   3.2309219  51.2683181  18.6504171   2.9309942  52.1708219  18.5419978
   2.8860279  51.0015364  19.5025324   6.6306363  43.7865721  16.3301608
   5.7223240  43.7181129  16.0360369   6.5793959  44.2637666  17.1583434
   8.4968009  41.9882159  18.1079482   7.8542390  42.2814692  17.4619277
   7.9922938  41.8735079  18.9132679   4.4348941  50.1569960  22.4326634
   4.8432297  49.7152371  21.6881266   3.7126202  49.5822588  22.6860827
   0.7880011  45.0942567  19.8060191   1.6341206  45.5181980  19.9494840
   0.7278648  44.4376191  20.4998754   4.7577755  50.7171151  16.1878923
   4.1286618  50.8816865  15.4854991   4.3703417  51.1312760  16.9589887
   8.6366987  51.6525589  13.5423287   7.9518025  52.0324490  12.9920320
   8.7210837  52.2620915  14.2755234   3.9379456  42.7546935  21.4641364
   3.6940388  43.5088996  20.9275640   4.2139387  43.1332283  22.2988612
   5.8917919  49.2985548  20.1418630   6.1034814  49.9417308  19.4653011
   5.8447667  48.4647864  19.6740560   7.0063747  52.1757503  18.3140987
   7.8281191  51.7737690  18.0323669   7.0026150  52.0725737  19.2657103
  15.0969740  48.5196252  14.6625959  14.3433448  47.9503650  14.5069963
  15.2317281  48.4858916  15.6096594   2.1136844  54.0133220  24.4681020
   1.6700699  53.2269599  24.1501925   2.7754058  54.2012371  23.8024911
   4.2118082  54.2936020  22.4962422   4.1936558  55.1144901  22.0042691
   5.1338002  54.1690096  22.7212563   7.0136695  49.1315163  15.9671788
   6.3560370  49.8214424  16.0551917   7.8177094  49.5211595  16.3105775
   5.8242154  47.4859535  14.0175730   6.3374036  48.1189527  14.5197440
   6.4743378  46.8860731  13.6519090   6.5903950  52.4665537  12.1454873
   6.1366277  51.6256447  12.2020063   5.9597917  53.1026935  12.4829653
   5.0336890  54.3042034  13.0804691   5.3259864  54.8647091  12.3617056
   5.5435510  54.5970595  13.8357850   3.4436149  45.5506452  21.0678773
   3.7985536  45.7777925  21.9273239   4.0908280  45.8824829  20.4456028
   9.1733885  48.6724888  11.7728102   9.0351784  48.8626484  10.8449291
   8.8170104  49.4344271  12.2296153   9.2003265  50.7401415  16.7839374
   9.6339772  50.6476704  17.6322428   9.9134846  50.7158916  16.1459390
   2.9331160  54.3403509  18.3172474   2.9868182  54.9094446  19.0850190
   2.0645941  54.5105394  17.9526511  10.0618815  50.7825116  19.3172259
  10.2554705  51.6870926  19.5631534   9.9619433  50.3232535  20.1510844
   1.7155125  40.6683006  21.8162586   1.0683040  41.3672956  21.7227063
   2.4856141  41.1019150  22.1838835   5.1233923  50.9331859  24.8913140
   4.9719430  50.7042410  23.9743223   5.1138603  51.8902460  24.9044485
   1.8919260  48.5063771  19.8759406   2.8211320  48.6574931  19.7028373
   1.4710290  48.5947792  19.0208053   2.2412807  51.9096038  15.0346782
   1.9062639  51.8696808  15.9304431   1.7416752  51.2440754  14.5617192
   6.8326130  53.9650981  22.9689622   6.7738676  53.2810201  22.3020205
   7.2345648  54.7069971  22.5170248   6.8343537  51.9290565  21.2003601
   5.9470316  51.5916487  21.3230000   7.4042088  51.1973596  21.4372367
  11.3160878  47.3398782  15.9620163  11.3050754  48.2223498  15.5914096
  10.4478257  46.9870333  15.7674700   2.8243374  56.4878851  20.3223003
   3.5371346  57.1226316  20.2498905   2.3333403  56.5842717  19.5063005
   5.6756574  46.7917902  18.9681124   5.0228024  47.0393810  18.3133577
   6.0536954  45.9782040  18.6343602   2.6363748  56.8277595  13.0709295
   2.8186142  56.0099251  13.5337047   3.4596734  57.0445288  12.6334185
   2.9705913  55.7545781  10.3324343   3.4993679  55.2438235   9.7194505
   3.2334133  55.4388311  11.1969876   1.7244147  47.5337713  25.4547161
   1.0484784  47.4331843  26.1249537   2.5471781  47.3776927  25.9183159
   5.3177804  53.6665898  25.5453432   5.8617708  54.2795857  25.0508387
   4.7364649  54.2245477  26.0620445   3.6035317  56.7886616  16.6768460
   3.4786456  55.9876356  16.1679405   4.2614408  57.2832810  16.1882430
   5.6670225  54.5895636  18.3048010   4.7200561  54.4700988  18.2326336
   6.0152998  53.7018134  18.3874271   2.6716659  54.3848353  14.5052362
   2.5241621  53.4565060  14.6859932   3.4970152  54.4068443  14.0209437
   6.2750780  55.2076911  15.5917235   7.1997328  55.0019773  15.4541686
   6.1066084  54.9593313  16.5006576   1.1199908  42.6211792  18.1689241
   0.8617686  43.5428862  18.1673571   0.5884948  42.2242226  18.8589705
   6.0646097  55.7262579  10.9479326   6.2382974  55.1609001  10.1953179
   6.5574988  56.5263474  10.7658816  11.9185488  48.4899002  12.5669626
  12.3616634  47.7406327  12.1688749  11.0411998  48.4809138  12.1843358
   7.0521269  55.0429343   8.0476224   7.7472174  55.6636036   8.2663539
   7.3944419  54.1924694   8.3228602   8.9512692  52.4929049   9.5763555
   9.4764016  52.8316322   8.8512875   8.8635045  51.5576064   9.3926690
   0.6132741  56.4063122  21.7053432   0.9219867  56.1612269  22.5776131
   1.4108223  56.6109761  21.2172302   8.6406598  53.1261952  24.8814753
   7.8502142  53.1086091  24.3419252   8.4039953  53.6650246  25.6363790
   8.7604473  49.9754419  22.1947482   8.8102478  49.8104426  23.1363004
   8.6518397  49.1081678  21.8045362   6.0508236  45.9585347  23.5106788
   6.9518098  45.8191812  23.2190786   6.1256210  46.1239802  24.4504966
  10.2622670  52.3951360  22.4389503   9.9707478  52.7581341  23.2752964
   9.6494801  51.6818369  22.2602835  11.4618352  49.9604240  14.9592073
  12.2965244  50.3994044  15.1229634  11.5977481  49.4842893  14.1400319
   8.5109858  47.5183975  20.9069561   8.9863980  47.7111621  20.0988413
   7.5875424  47.5743161  20.6612945   3.0890075  39.5531818  19.8725395
   3.6072019  40.2892845  19.5471884   2.7345208  39.8595812  20.7072154
   7.2111527  44.3949735  19.1397867   8.1628950  44.4947833  19.1610091
   7.0414978  43.6028004  19.6495951   5.2325907  41.4805318  19.3257268
   4.6375839  41.7610331  18.6303756   4.9475604  41.9699219  20.0974009
   9.6899605  47.6155855  18.2540166   9.6575925  46.6771855  18.4399850
  10.3000229  47.6939891  17.5205991   9.8394094  44.4066898  18.2998450
   9.3233142  43.6225355  18.1128378  10.7234042  44.0785615  18.4644969
  15.5076155  48.6771862  17.3946203  16.2379543  48.4157150  17.9553907
  14.8983100  47.9400583  17.4348271  13.5891452  46.8179724  17.9920654
  12.8624616  46.6835689  17.3837146  13.1738739  47.1256553  18.7977372
   1.4121629  50.5369654  25.7568027   2.3324638  50.7148253  25.9508074
   1.3771212  49.5925699  25.6047727  11.2069247  43.0391576  15.3454086
  11.8013738  42.7987312  14.6347394  11.2795831  42.3198707  15.9727622
  13.5140320  46.3457777  14.1197507  12.9539878  46.4150966  14.8929069
  12.9083823  46.1698762  13.3997003   3.4403863  51.3125665  27.4082188
   4.3095022  51.4866317  27.0468823   2.9610614  52.1320082  27.2857918
  15.0996338  63.0214291  16.8127463  15.7374748  62.9021038  16.1090803
  14.9817181  63.9695135  16.8715415  11.9086045  62.9741719  16.7488988
  11.5704556  62.8582784  15.8609522  12.7775813  62.5732884  16.7289994
   7.7672860  64.8277196  12.7385879   7.2037725  64.7367133  11.9702166
   7.6525255  64.0077100  13.2188371  12.3905828  64.1276571  22.7075193
  12.3794468  63.7329369  21.8355697  12.5526467  63.3942644  23.3008965
   5.3137292  66.3228387  15.5770099   6.1058584  65.9819212  15.1616398
   5.5533942  66.4323362  16.4972252   9.1113089  66.9113683  21.6554377
   8.8202955  67.8159314  21.5401043   9.7470073  66.9530210  22.3698447
  10.0369296  64.2890531  18.2455737  10.6332868  64.0646554  17.5312700
  10.0944267  63.5475277  18.8481185  14.6537607  60.7465745  13.8880671
  15.4400696  60.3285168  13.5371088  14.9176311  61.6511837  14.0562319
  14.8247684  66.1838595   8.5869328  14.1893517  66.2573222   9.2990232
  14.4945090  66.7732194   7.9088407  20.0546034  60.6840978  14.7913649
  20.7871206  60.1140195  15.0251479  19.2985390  60.2962579  15.2320155
  11.6722154  63.1068220  11.9876992  11.3080361  62.5798841  12.6989913
  12.5289269  62.7166689  11.8143477  17.5771454  54.3962552  19.2508258
  17.2454779  55.2657963  19.0269473  16.9817068  54.0798836  19.9302288
  11.3127641  58.1358119   6.9838340  11.4802043  59.0038356   7.3508811
  11.1224810  58.2985401   6.0599630  14.0702974  66.5975098  18.6504171
  13.7703697  67.5000137  18.5419978  13.7254033  66.3307281  19.5025324
   7.5215455  63.0488895  14.6840875   6.5965952  62.9165109  14.8918567
   7.7699868  63.8283114  15.1810818  17.4700118  59.1157638  16.3301608
  16.5616995  59.0473047  16.0360369  17.4187713  59.5929583  17.1583434
  11.2916861  60.5915777   7.9685007  11.1716487  61.0372828   8.8070488
  10.5969450  60.9401095   7.4098545   4.8824266  62.6922169  15.5184664
   5.0116647  62.9456648  16.4324076   4.2021718  63.2849877  15.1989319
  11.5440983  60.5347284  24.2736505  10.7674317  61.0941204  24.2639370
  12.1831546  61.0204067  24.7951376  19.3361764  57.3174077  18.1079482
  18.6936144  57.6106610  17.4619277  18.8316692  57.2026997  18.9132679
  16.9901928  61.0637250   8.7965341  17.9019784  61.2964637   8.6213039
  16.4811575  61.6474294   8.2340420   9.7987356  63.3432737  23.8354472
  10.5402040  63.8817781  23.5589296   9.0924341  63.9699026  23.9926024
  15.2742695  65.4861878  22.4326634  15.6826051  65.0444288  21.6881266
  14.5519957  64.9114505  22.6860827  11.6273765  60.4234485  19.8060191
  12.4734960  60.8473898  19.9494840  11.5672403  59.7668109  20.4998754
  15.5971510  66.0463068  16.1878923  14.9680372  66.2108783  15.4854991
  15.2097172  66.4604678  16.9589887  19.4760742  66.9817506  13.5423287
  18.7911780  67.3616408  12.9920320  19.5604591  67.5912833  14.2755234
  14.7773211  58.0838853  21.4641364  14.5334143  58.8380913  20.9275640
  15.0533141  58.4624201  22.2988612  16.7311673  64.6277465  20.1418630
  16.9428569  65.2709225  19.4653011  16.6841422  63.7939782  19.6740560
  14.3337902  57.2395286  17.0455202  13.4722381  57.5376540  17.3371940
  14.3600337  57.4565685  16.1136235  11.1499472  65.7837477  13.4529008
  11.6137817  66.0625180  12.6633630  10.8856270  64.8820921  13.2702099
   8.0423553  65.3308958  16.3908771   8.6124910  65.7596226  15.7526256
   8.6331665  65.0491543  17.0892957  10.0868358  61.9060629  10.2618573
  10.7892401  62.3581673  10.7292499   9.7548986  61.2644448  10.8898466
   8.5348719  60.4972386  24.6369782   7.9047380  61.1788666  24.8705179
   8.4284807  60.3855467  23.6922921   3.8293692  60.1644182  15.5635707
   3.0392746  60.4201710  15.0875817   4.3204939  60.9792519  15.6687747
  17.8457501  67.5049421  18.3140987  18.6674945  67.1029608  18.0323669
  17.8419904  67.4017655  19.2657103   5.7808437  60.5288761  12.5219183
   4.9839600  60.6407455  13.0402679   5.5534029  60.8675413  11.6560074
  11.6114105  67.0533464  20.4701698  11.6758537  67.5153871  21.3059870
  10.9025029  66.4230829  20.5984008   2.1131395  60.4174672  17.9950697
   2.3639433  61.3021682  18.2608273   2.6490943  60.2379274  17.2225789
  25.9363494  63.8488169  14.6625959  25.1827203  63.2795567  14.5069963
  26.0711036  63.8150834  15.6096594  11.3262122  68.7201572  10.3380678
  11.1907797  69.5653107  10.7665526  11.8671935  68.9220849   9.5746612
   7.8129462  54.7993151  26.9995033   7.4196408  54.2459350  27.6742678
   8.6295602  55.1103730  27.3901551  10.7297423  56.2151030  24.5915290
  11.4707136  56.8158184  24.5119752  10.9615346  55.4728668  24.0333333
   5.8738761  61.4007398  22.8693520   5.7592276  60.4992655  23.1700619
   5.0183279  61.6471095  22.5178336  12.9530599  69.3425138  24.4681020
  12.5094453  68.5561517  24.1501925  13.6147812  69.5304289  23.8024911
   7.7117720  70.8720940  18.9941699   8.2625145  70.7438003  18.2218693
   6.8729196  71.1715829  18.6436592  15.0511837  69.6227938  22.4962422
  15.0330312  70.4436819  22.0042691  15.9731757  69.4982013  22.7212563
  11.5084891  67.1372067  23.3385930  12.0413228  66.3760356  23.1085238
  10.9798972  66.8445719  24.0810084  14.6754586  52.2432133  18.8679572
  14.3318855  53.1333775  18.7918682  15.0433549  52.0533791  18.0049157
  14.6404869  62.2340745   7.3752007  14.1251492  63.0045349   7.6140394
  14.3682177  61.5605881   7.9985068  12.2251980  57.0790445  12.4337245
  11.3693576  56.6897296  12.2542884  12.6378932  57.1582406  11.5737031
  13.7551126  54.6136789  16.8328805  13.2515922  54.5766924  16.0196610
  14.0481733  55.5229531  16.8925462   9.9994012  54.6975518  15.8394987
  10.8647009  54.5018327  15.4800876  10.0671521  54.4685870  16.7664343
  19.6139143  64.9873099   9.3105180  18.8368586  64.6484259   8.8660342
  20.2930624  64.9925722   8.6360145  14.4291172  60.1067837   9.2011788
  14.1241307  60.4213986  10.0521931  15.3821614  60.1849257   9.2439121
  12.8737604  66.2658060  10.8504742  12.3458965  65.5310820  10.5377979
  12.3725106  67.0432736  10.6044710  17.8530450  64.4607080  15.9671788
  17.1954124  65.1506342  16.0551917  18.6570849  64.8503512  16.3105775
   7.6056331  56.9277726  13.2111353   8.1800083  56.7052908  12.4784546
   8.1927314  56.9966421  13.9639955  16.6635909  62.8151453  14.0175730
  17.1767790  63.4481445  14.5197440  17.3137132  62.2152649  13.6519090
   9.9078999  53.8018975  11.9386423   9.2543411  53.4867992  11.3143038
   9.8659473  53.1794716  12.6646246  13.1416739  60.2900909  16.2634071
  12.2239301  60.5115856  16.1055759  13.5576883  60.3647219  15.4045778
  13.9251787  61.6892324  11.3936751  14.6723606  62.2013722  11.0843873
  14.1943377  61.3676377  12.2541144  12.1978437  64.1850865   8.3763705
  11.2889657  63.9009898   8.4736175  12.2273521  64.6049944   7.5167012
  17.4297705  67.7957455  12.1454873  16.9760032  66.9548364  12.2020063
  16.7991671  68.4318853  12.4829653  16.3730624  58.7249441  13.3755540
  15.6353381  58.2126827  13.7065783  16.6257398  58.2849822  12.5638817
  15.8730644  69.6333951  13.0804691  16.1653618  70.1939008  12.3617056
  16.3829265  69.9262512  13.8357850  16.4742252  51.5025693  13.9697309
  16.7801128  50.6423056  13.6823224  17.1994856  52.0943313  13.7696303
  10.7463331  61.7979486  14.4773500  10.8011941  60.8453322  14.4015977
   9.9354533  61.9538925  14.9614799   8.6855691  60.4156545  12.2363879
   7.8723557  60.7150716  12.6429071   9.1814686  60.0212234  12.9538362
  10.8364269  70.4114302  14.1698144  10.7940448  70.6375149  13.2406676
  11.7526968  70.1777677  14.3183945  14.2829903  60.8798370  21.0678773
  14.6379291  61.1069843  21.9273239  14.9302034  61.2116747  20.4456028
  20.0127640  64.0016806  11.7728102  19.8745539  64.1918402  10.8449291
  19.6563859  64.7636189  12.2296153   8.1769766  57.9874901  17.8525114
   8.8169145  57.8463660  17.1548078   7.3447297  57.7009414  17.4763716
  20.0397020  66.0693333  16.7839374  20.4733526  65.9768622  17.6322428
  20.7528600  66.0450833  16.1459390   8.9530070  67.2877331  13.9660107
   9.7470668  66.7927652  13.7642682   8.2421762  66.7595194  13.6027812
  13.7724914  69.6695427  18.3172474  13.8261937  70.2386363  19.0850190
  12.9039696  69.8397312  17.9526511   5.1798383  57.9575226  12.6298101
   5.4405200  58.8720559  12.5207262   6.0015555  57.4899669  12.7794714
   6.6523308  59.3712983  19.7996926   7.3246361  59.1630345  19.1509574
   5.8253094  59.1735069  19.3602158  20.9012569  66.1117033  19.3172259
  21.0948459  67.0162844  19.5631534  20.8013187  65.6524453  20.1510844
  12.5548880  55.9974924  21.8162586  11.9076795  56.6964874  21.7227063
  13.3249895  56.4311068  22.1838835  15.9627678  66.2623776  24.8913140
  15.8113184  66.0334328  23.9743223  15.9532357  67.2194378  24.9044485
  12.7313014  63.8355689  19.8759406  13.6605074  63.9866849  19.7028373
  12.3104044  63.9239710  19.0208053  11.5301346  67.8606353  17.6457944
  11.3912432  67.4925138  18.5183882  10.7415942  68.3753993  17.4741902
  13.0806561  67.2387956  15.0346782  12.7456394  67.1988726  15.9304431
  12.5810507  66.5732672  14.5617192   7.0550805  62.6455586  20.5599363
   6.9170603  61.9135825  21.1610902   7.9655729  62.5564486  20.2783551
  16.0165753  64.5843990   5.3083841  15.3994923  63.8590819   5.2116894
  15.5482241  65.3453351   4.9650916   9.6833106  62.3575545  20.0483042
  10.3932724  61.7168738  20.0069661   9.6402414  62.6088440  20.9709223
  17.6719884  69.2942899  22.9689622  17.6132431  68.6102119  22.3020205
  18.0739403  70.0361889  22.5170248   8.3962040  59.3440763  21.8678682
   7.8599397  58.8931502  22.5200278   7.8078748  59.4786672  21.1249146
  17.6737292  67.2582483  21.2003601  16.7864070  66.9208404  21.3230000
  18.2435843  66.5265514  21.4372367   4.1301161  58.4796771  18.9531676
   4.0459350  57.8722441  18.2182086   3.3083867  58.9705789  18.9541173
  11.2038445  71.9183935  18.1664844  11.1308617  72.7238907  18.6784149
  10.7615838  72.1175901  17.3412866  14.3024875  56.9650335  14.3201871
  14.7993574  56.2120297  14.0002942  13.5311856  57.0014651  13.7545081
  22.1554632  62.6690700  15.9620163  22.1444508  63.5515415  15.5914096
  21.2872012  62.3162251  15.7674700  13.6637129  71.8170769  20.3223003
  14.3765101  72.4518234  20.2498905  13.1727157  71.9134635  19.5063005
  15.3854656  65.7222022  11.8940295  14.4510934  65.8423484  11.7244999
  15.5631324  64.8194489  11.6300305  10.8859844  59.1067718  14.0473556
  10.5157631  58.5538758  14.7354462  11.3818936  58.5025851  13.4948556
  18.7727207  61.5639341  12.4290329  19.2387659  62.3967333  12.3550632
  19.2234707  61.0984323  13.1335587   8.7149042  69.5665213  21.1428574
   9.4158502  70.2001695  21.2957968   8.2444157  69.9079944  20.3824213
  16.8403438  67.9083162   9.4276481  17.1163282  67.7939757  10.3370355
  15.9707937  67.5100647   9.3888654  16.7443870  53.9319928  16.4681230
  15.8306949  54.1624155  16.6363437  17.1736971  54.0158372  17.3195263
  16.5150328  62.1209820  18.9681124  15.8621778  62.3685727  18.3133577
  16.8930708  61.3073958  18.6343602  13.4757502  72.1569513  13.0709295
  13.6579897  71.3391169  13.5337047  14.2990488  72.3737205  12.6334185
  13.8099668  71.0837698  10.3324343  14.3387434  70.5730153   9.7194505
  14.0727887  70.7680228  11.1969876  12.5637901  62.8629631  25.4547161
  11.8878538  62.7623760  26.1249537  13.3865535  62.7068845  25.9183159
   4.3116760  69.1001568  18.0759677   4.8970197  68.3545255  18.2087581
   4.1141599  69.4105524  18.9596341  11.3060684  74.1696558  19.6904777
  11.8578992  74.3328180  20.4553863  11.6466877  74.7600996  19.0184802
   6.2825177  56.5171708  20.2926662   6.3466504  57.3786539  19.8804060
   6.2192298  55.9045710  19.5599021   5.7577450  58.5894841  23.9399696
   6.3849489  58.2071918  24.5537221   4.9005369  58.3709043  24.3055389
  16.1571558  68.9957816  25.5453432  16.7011462  69.6087774  25.0508387
  15.5758403  69.5537394  26.0620445  14.4429071  72.1178534  16.6768460
  14.3180211  71.3168274  16.1679405  15.1008162  72.6124727  16.1882430
   6.0637240  58.4727267  15.8545600   5.3423825  59.0863234  15.7153073
   6.8530495  59.0085031  15.7762246  16.5063980  69.9187554  18.3048010
  15.5594315  69.7992905  18.2326336  16.8546753  69.0310052  18.3874271
   8.8663553  55.8081693  22.1286252   9.3897955  56.0543990  22.8912561
   8.6475886  56.6401728  21.7089389   4.2630834  58.0785368   9.9957376
   3.9343540  57.1982747   9.8132482   4.6170205  58.0233036  10.8833766
  13.5110413  69.7140270  14.5052362  13.3635375  68.7856978  14.6859932
  14.3363907  69.7360361  14.0209437   7.3772657  58.3658337  10.3632854
   7.7168730  58.8944259   9.6411462   7.8244778  58.7038744  11.1391421
  17.1144535  70.5368829  15.5917235  18.0391082  70.3311690  15.4541686
  16.9459838  70.2885230  16.5006576  10.0716098  56.7495388  19.8135922
   9.7312918  55.9503201  20.2156602   9.3655104  57.0497099  19.2412755
  10.7232570  53.8344701  18.2663245  11.5458639  53.3605179  18.1442135
  10.9670633  54.6135184  18.7661931   9.3640804  56.8632959   8.5626147
  10.0849167  57.2414212   8.0589864   8.7406109  57.5821836   8.6661125
  13.5071927  57.5678108   9.4984479  13.7235542  58.4502746   9.1973307
  13.0265994  57.1764321   8.7690121   8.2471149  60.5263821  16.0755224
   8.1015729  60.8404124  16.9679505   7.7696352  61.1448722  15.5226122
  10.1067532  57.5166369  16.1236113  10.0929100  56.6207462  15.7868411
  10.8239960  57.5237033  16.7574399  11.9593662  57.9503709  18.1689241
  11.7011440  58.8720780  18.1673571  11.4278703  57.5534144  18.8589705
  16.9039851  71.0554496  10.9479326  17.0776729  70.4900919  10.1953179
  17.3968742  71.8555391  10.7658816   2.7216811  63.0669166  19.0142885
   2.1770279  63.8428974  19.1463159   3.5996161  63.4139970  18.8562006
   9.5104428  56.3980749  11.3923683   9.6320339  55.4697396  11.5914571
   9.2206470  56.4119435  10.4801999  12.3795618  54.0835660  14.5290403
  12.4017315  54.1474993  13.5742383  12.7963677  53.2440169  14.7230909
  22.7579242  63.8190919  12.5669626  23.2010388  63.0698245  12.1688749
  21.8805753  63.8101056  12.1843358  17.8915024  70.3721261   8.0476224
  18.5865928  70.9927954   8.2663539  18.2338174  69.5216612   8.3228602
   3.5082833  62.1939062  21.9073042   2.7664569  62.3421697  22.4937672
   3.1875577  62.4547327  21.0439791  19.7906447  67.8220966   9.5763555
  20.3157771  68.1608239   8.8512875  19.7028799  66.8867982   9.3926690
  11.4526495  71.7355040  21.7053432  11.7613622  71.4904187  22.5776131
  12.2501977  71.9401679  21.2172302  11.4747107  73.8892950  13.9358808
  11.0352098  73.3969328  14.6291665  12.2255224  73.3465917  13.6950884
   8.9220980  69.4330959  16.0081110   8.3000989  68.7701664  15.7083338
   9.5925846  69.4592091  15.3254758   8.9945507  57.9112747  25.6013616
   9.0433663  58.7874870  25.2191386   9.5368021  57.3690140  25.0285259
  19.4800353  68.4553870  24.8814753  18.6895896  68.4378009  24.3419252
  19.2433707  68.9942164  25.6363790  19.5998228  65.3046336  22.1947482
  19.6496233  65.1396344  23.1363004  19.4912151  64.4373595  21.8045362
  16.8901990  61.2877264  23.5106788  17.7911853  61.1483729  23.2190786
  16.9649965  61.4531719  24.4504966  11.2244795  58.6644119  22.3559975
  10.3548105  58.9577685  22.0842563  11.4604276  59.2484564  23.0767238
  21.1016425  67.7243278  22.4389503  20.8101233  68.0873259  23.2752964
  20.4888556  67.0110286  22.2602835  22.3012107  65.2896158  14.9592073
  23.1358998  65.7285962  15.1229634  22.4371236  64.8134811  14.1400319
  19.3503613  62.8475893  20.9069561  19.8257734  63.0403539  20.0988413
  18.4269178  62.9035078  20.6612945  13.9283829  54.8823736  19.8725395
  14.4465773  55.6184763  19.5471884  13.5738962  55.1887729  20.7072154
  14.1796423  51.3024019  15.3926292  14.4598177  50.6347208  16.0186718
  14.9647030  51.4953114  14.8800955  18.0505282  59.7241653  19.1397867
  19.0022705  59.8239750  19.1610091  17.8808732  58.9319921  19.6495951
  16.0719661  56.8097236  19.3257268  15.4769593  57.0902249  18.6303756
  15.7869358  57.2991137  20.0974009  17.8315168  70.0786033   5.0463848
  17.7528800  69.7445897   5.9399606  18.6524835  70.5707801   5.0455320
  20.5293360  62.9447772  18.2540166  20.4969680  62.0063773  18.4399850
  21.1393983  63.0231809  17.5205991  20.6787848  59.7358816  18.2998450
  20.1626897  58.9517272  18.1128378  21.5627797  59.4077532  18.4644969
  18.3398575  53.4799831  14.2594262  18.1423396  53.1714920  15.1437594
  18.9498281  54.2061470  14.3892192  26.3469909  64.0063779  17.3946203
  27.0773298  63.7449067  17.9553907  25.7376855  63.2692501  17.4348271
  24.4285207  62.1471642  17.9920654  23.7018370  62.0127607  17.3837146
  24.0132493  62.4548470  18.7977372  12.2515383  65.8661571  25.7568027
  13.1718392  66.0440170  25.9508074  12.2164966  64.9217617  25.6047727
   1.4697548  61.0600165  14.6821302   1.1500332  60.2065473  14.3895676
   0.9230976  61.2748743  15.4379269   5.2477456  63.7762606  18.3990809
   5.4663465  64.7079714  18.4178842   5.6603229  63.4170581  19.1845612
  12.1681673  54.2830691  10.3866497  11.3582402  53.9377776  10.7621743
  12.8566090  53.9738235  10.9754109  14.0972222  53.3608738  12.0090794
  14.6503260  53.7804192  12.6680817  14.3342308  52.4344486  12.0513750
  10.1205321  59.3495812  27.7893558  10.0202048  60.2990169  27.7205649
   9.9026863  59.0214051  26.9169628   1.3385808  64.6803077  16.6514424
   0.6449279  64.2657029  16.1384378   2.0858799  64.7223613  16.0547843
  17.4751029  55.4709263  11.5169458  16.8949698  56.1294067  11.1347510
  17.2086961  54.6486608  11.1056875  15.9254595  54.8714321  13.7190778
  16.4254373  54.9830856  12.9105097  16.5690203  54.5675374  14.3591587
   9.9836591  62.7792951  26.6058619   9.5003673  63.5793311  26.8122508
  10.0697530  62.7900896  25.6526063   3.2522551  64.6121330  14.5280439
   3.2293239  64.7109018  13.5762322   3.5623187  65.4586481  14.8497605
   5.9109928  66.6697485  18.6427053   6.8653182  66.6381428  18.5756985
   5.7122452  66.2088109  19.4577279   6.5009311  65.2398601  21.2097851
   7.3202200  65.7342680  21.2332688   6.7746118  64.3230570  21.1815418
  16.2575907  57.6309354  10.5725806  15.3701762  57.9159004  10.3546001
  16.6729896  57.4703117   9.7253083  19.6090443  57.6555875  14.2880145
  20.3850833  58.1452327  14.5604762  18.8838577  58.0813929  14.7452015
  22.0463002  58.3683494  15.3454086  22.6407492  58.1279230  14.6347394
  22.1189585  57.6490625  15.9727622  16.2316931  63.1463890  10.7876096
  16.1752132  63.6032441   9.9483729  16.7845273  62.3854574  10.6098939
  20.0421736  58.9353622  11.6126216  19.7858671  58.5350257  12.4434423
  19.4174604  59.6497416  11.4876355  24.3534074  61.6749695  14.1197507
  23.7933632  61.7442884  14.8929069  23.7477578  61.4990679  13.3997003
   7.4229283  73.1086422  15.8715693   7.3061667  74.0531854  15.7694384
   6.6021729  72.8059983  16.2601493  17.3105818  67.8336558   6.7172286
  18.1451422  67.4017756   6.5349761  17.1490161  67.6618571   7.6449181
  16.9651710  64.3368671   8.0828625  16.9100514  64.1712942   7.1417070
  16.3397765  65.0444704   8.2390815   1.7544225  59.5736735  21.9090048
   2.4003088  59.0635689  22.3977273   1.5461376  60.3105417  22.4833473
  14.2797617  66.6417583  27.4082188  15.1488777  66.8158235  27.0468823
  13.8004368  67.4612000  27.2857918  10.2747835  53.8376780   7.6613944
  10.2626505  54.7818620   7.8182215  11.1671257  53.6546925   7.3673405
   8.4483797  73.7614684  19.0871622   9.3511044  73.7938294  19.4038117
   8.2221167  72.8315135  19.1017958  10.2037399  72.5145670  15.7481701
   9.2533030  72.5147532  15.6346073  10.5069885  71.7678405  15.2317735
  14.0899955  50.4319557  11.9159881  13.3232351  49.8778043  12.0616563
  14.5010660  50.5041425  12.7774032   6.0941716  56.7204352  26.0065062
   6.9573177  56.3641157  26.2168386   5.5207126  56.3818247  26.6940466
  25.9390093  78.3506209  16.8127463  26.5768503  78.2312956  16.1090803
  25.8210936  79.2987053  16.8715415  22.7479799  78.3033637  16.7488988
  22.4098311  78.1874702  15.8609522  23.6169567  77.9024802  16.7289994
  18.6066615  80.1569113  12.7385879  18.0431480  80.0659050  11.9702166
  18.4919010  79.3369018  13.2188371  23.2299582  79.4568489  22.7075193
  23.2188223  79.0621287  21.8355697  23.3920221  78.7234561  23.3008965
  16.1531047  81.6520305  15.5770099  16.9452339  81.3111130  15.1616398
  16.3927697  81.7615280  16.4972252  19.9506843  82.2405600  21.6554377
  19.6596709  83.1451231  21.5401043  20.5863827  82.2822128  22.3698447
  20.8763050  79.6182449  18.2455737  21.4726622  79.3938471  17.5312700
  20.9338022  78.8767194  18.8481185  25.4931361  76.0757663  13.8880671
  26.2794450  75.6577086  13.5371088  25.7570066  76.9803755  14.0562319
  25.6641439  81.5130513   8.5869328  25.0287272  81.5865139   9.2990232
  25.3338845  82.1024112   7.9088407  30.8939788  76.0132896  14.7913649
  31.6264960  75.4432113  15.0251479  30.1379144  75.6254496  15.2320155
  22.5115908  78.4360137  11.9876992  22.1474115  77.9090758  12.6989913
  23.3683024  78.0458606  11.8143477  28.4165209  69.7254470  19.2508258
  28.0848533  70.5949881  19.0269473  27.8210822  69.4090754  19.9302288
  22.1521395  73.4650037   6.9838340  22.3195797  74.3330273   7.3508811
  21.9618564  73.6277319   6.0599630  24.9096728  81.9267016  18.6504171
  24.6097451  82.8292055  18.5419978  24.5647788  81.6599199  19.5025324
  18.3609210  78.3780813  14.6840875  17.4359706  78.2457027  14.8918567
  18.6093623  79.1575032  15.1810818  28.3093872  74.4449556  16.3301608
  27.4010749  74.3764965  16.0360369  28.2581468  74.9221501  17.1583434
  22.1310616  75.9207695   7.9685007  22.0110241  76.3664745   8.8070488
  21.4363204  76.2693012   7.4098545  15.7218021  78.0214086  15.5184664
  15.8510402  78.2748565  16.4324076  15.0415472  78.6141794  15.1989319
  22.3834738  75.8639202  24.2736505  21.6068072  76.4233122  24.2639370
  23.0225301  76.3495985  24.7951376  30.1755518  72.6465994  18.1079482
  29.5329899  72.9398528  17.4619277  29.6710447  72.5318915  18.9132679
  27.8295682  76.3929168   8.7965341  28.7413538  76.6256554   8.6213039
  27.3205329  76.9766212   8.2340420  20.6381110  78.6724655  23.8354472
  21.3795794  79.2109699  23.5589296  19.9318096  79.2990944  23.9926024
  26.1136450  80.8153796  22.4326634  26.5219806  80.3736206  21.6881266
  25.3913711  80.2406423  22.6860827  22.4667520  75.7526402  19.8060191
  23.3128715  76.1765816  19.9494840  22.4066157  75.0960027  20.4998754
  26.4365264  81.3754986  16.1878923  25.8074127  81.5400700  15.4854991
  26.0490926  81.7896596  16.9589887  30.3154496  82.3109424  13.5423287
  29.6305534  82.6908325  12.9920320  30.3998346  82.9204751  14.2755234
  25.6166965  73.4130771  21.4641364  25.3727897  74.1672831  20.9275640
  25.8926896  73.7916118  22.2988612  27.5705428  79.9569383  20.1418630
  27.7822323  80.6001143  19.4653011  27.5235176  79.1231700  19.6740560
  25.1731657  72.5687204  17.0455202  24.3116136  72.8668457  17.3371940
  25.1994092  72.7857603  16.1136235  21.9893226  81.1129394  13.4529008
  22.4531572  81.3917097  12.6633630  21.7250024  80.2112839  13.2702099
  18.8817307  80.6600876  16.3908771  19.4518664  81.0888144  15.7526256
  19.4725419  80.3783460  17.0892957  20.9262112  77.2352547  10.2618573
  21.6286156  77.6873590  10.7292499  20.5942741  76.5936365  10.8898466
  19.3742474  75.8264303  24.6369782  18.7441134  76.5080584  24.8705179
  19.2678562  75.7147385  23.6922921  14.6687446  75.4936099  15.5635707
  13.8786500  75.7493628  15.0875817  15.1598694  76.3084437  15.6687747
  28.6851256  82.8341338  18.3140987  29.5068700  82.4321526  18.0323669
  28.6813659  82.7309573  19.2657103  16.6202192  75.8580679  12.5219183
  15.8233355  75.9699373  13.0402679  16.3927784  76.1967331  11.6560074
  22.4507859  82.3825382  20.4701698  22.5152292  82.8445789  21.3059870
  21.7418783  81.7522747  20.5984008  12.9525149  75.7466590  17.9950697
  13.2033188  76.6313600  18.2608273  13.4884698  75.5671191  17.2225789
  36.7757249  79.1780087  14.6625959  36.0220957  78.6087485  14.5069963
  36.9104790  79.1442751  15.6096594  22.1655877  84.0493489  10.3380678
  22.0301552  84.8945025  10.7665526  22.7065689  84.2512767   9.5746612
  18.6523217  70.1285069  26.9995033  18.2590162  69.5751268  27.6742678
  19.4689357  70.4395648  27.3901551  21.5691178  71.5442948  24.5915290
  22.3100891  72.1450101  24.5119752  21.8009100  70.8020586  24.0333333
  16.7132516  76.7299315  22.8693520  16.5986031  75.8284573  23.1700619
  15.8577033  76.9763012  22.5178336  23.7924353  84.6717056  24.4681020
  23.3488208  83.8853434  24.1501925  24.4541567  84.8596206  23.8024911
  18.5511474  86.2012857  18.9941699  19.1018900  86.0729921  18.2218693
  17.7122950  86.5007746  18.6436592  25.8905591  84.9519856  22.4962422
  25.8724067  85.7728737  22.0042691  26.8125511  84.8273931  22.7212563
  22.3478646  82.4663985  23.3385930  22.8806982  81.7052273  23.1085238
  21.8192727  82.1737637  24.0810084  25.5148341  67.5724051  18.8679572
  25.1712610  68.4625693  18.7918682  25.8827303  67.3825709  18.0049157
  25.4798623  77.5632662   7.3752007  24.9645247  78.3337267   7.6140394
  25.2075932  76.8897798   7.9985068  23.0645734  72.4082363  12.4337245
  22.2087331  72.0189213  12.2542884  23.4772686  72.4874324  11.5737031
  24.5944881  69.9428706  16.8328805  24.0909676  69.9058841  16.0196610
  24.8875488  70.8521449  16.8925462  20.8387767  70.0267436  15.8394987
  21.7040764  69.8310245  15.4800876  20.9065276  69.7977788  16.7664343
  30.4532897  80.3165017   9.3105180  29.6762340  79.9776176   8.8660342
  31.1324378  80.3217640   8.6360145  25.2684926  75.4359754   9.2011788
  24.9635062  75.7505903  10.0521931  26.2215369  75.5141174   9.2439121
  23.7131358  81.5949978  10.8504742  23.1852720  80.8602737  10.5377979
  23.2118861  82.3724654  10.6044710  28.6924204  79.7898998  15.9671788
  28.0347879  80.4798260  16.0551917  29.4964603  80.1795430  16.3105775
  18.4450086  72.2569644  13.2111353  19.0193838  72.0344825  12.4784546
  19.0321068  72.3258338  13.9639955  27.5029663  78.1443371  14.0175730
  28.0161545  78.7773363  14.5197440  28.1530887  77.5444566  13.6519090
  20.7472754  69.1310893  11.9386423  20.0937166  68.8159910  11.3143038
  20.7053228  68.5086633  12.6646246  23.9810494  75.6192826  16.2634071
  23.0633055  75.8407773  16.1055759  24.3970638  75.6939137  15.4045778
  24.7645542  77.0184242  11.3936751  25.5117361  77.5305639  11.0843873
  25.0337131  76.6968295  12.2541144  23.0372192  79.5142783   8.3763705
  22.1283411  79.2301816   8.4736175  23.0667276  79.9341861   7.5167012
  28.2691459  83.1249372  12.1454873  27.8153786  82.2840282  12.2020063
  27.6385426  83.7610771  12.4829653  27.2124379  74.0541358  13.3755540
  26.4747136  73.5418744  13.7065783  27.4651152  73.6141740  12.5638817
  26.7124399  84.9625869  13.0804691  27.0047373  85.5230926  12.3617056
  27.2223019  85.2554430  13.8357850  27.3136006  66.8317610  13.9697309
  27.6194883  65.9714974  13.6823224  28.0388611  67.4235230  13.7696303
  21.5857086  77.1271403  14.4773500  21.6405696  76.1745240  14.4015977
  20.7748288  77.2830842  14.9614799  19.5249446  75.7448463  12.2363879
  18.7117311  76.0442634  12.6429071  20.0208440  75.3504152  12.9538362
  21.6758024  85.7406220  14.1698144  21.6334203  85.9667066  13.2406676
  22.5920723  85.5069595  14.3183945  25.1223658  76.2090288  21.0678773
  25.4773045  76.4361761  21.9273239  25.7695789  76.5408664  20.4456028
  30.8521394  79.3308723  11.7728102  30.7139293  79.5210319  10.8449291
  30.4957613  80.0928106  12.2296153  19.0163521  73.3166819  17.8525114
  19.6562900  73.1755578  17.1548078  18.1841051  73.0301332  17.4763716
  30.8790774  81.3985250  16.7839374  31.3127281  81.3060540  17.6322428
  31.5922355  81.3742751  16.1459390  19.7923824  82.6169249  13.9660107
  20.5864423  82.1219569  13.7642682  19.0815517  82.0887112  13.6027812
  24.6118669  84.9987345  18.3172474  24.6655691  85.5678281  19.0850190
  23.7433450  85.1689230  17.9526511  16.0192137  73.2867144  12.6298101
  16.2798954  74.2012477  12.5207262  16.8409309  72.8191586  12.7794714
  17.4917062  74.7004901  19.7996926  18.1640116  74.4922263  19.1509574
  16.6646849  74.5026987  19.3602158  31.7406324  81.4408951  19.3172259
  31.9342214  82.3454762  19.5631534  31.6406942  80.9816370  20.1510844
  23.3942634  71.3266842  21.8162586  22.7470549  72.0256791  21.7227063
  24.1643650  71.7602986  22.1838835  26.8021432  81.5915694  24.8913140
  26.6506939  81.3626246  23.9743223  26.7926112  82.5486295  24.9044485
  23.5706769  79.1647607  19.8759406  24.4998829  79.3158766  19.7028373
  23.1497799  79.2531627  19.0208053  22.3695100  83.1898271  17.6457944
  22.2306186  82.8217055  18.5183882  21.5809697  83.7045910  17.4741902
  23.9200316  82.5679874  15.0346782  23.5850148  82.5280644  15.9304431
  23.4204261  81.9024590  14.5617192  17.8944560  77.9747504  20.5599363
  17.7564358  77.2427743  21.1610902  18.8049483  77.8856404  20.2783551
  26.8559507  79.9135908   5.3083841  26.2388678  79.1882736   5.2116894
  26.3875996  80.6745268   4.9650916  20.5226860  77.6867463  20.0483042
  21.2326479  77.0460655  20.0069661  20.4796168  77.9380358  20.9709223
  28.5113639  84.6234816  22.9689622  28.4526185  83.9394037  22.3020205
  28.9133157  85.3653806  22.5170248  19.2355794  74.6732681  21.8678682
  18.6993151  74.2223419  22.5200278  18.6472503  74.8078590  21.1249146
  28.5131046  82.5874400  21.2003601  27.6257825  82.2500322  21.3230000
  29.0829597  81.8557432  21.4372367  14.9694915  73.8088689  18.9531676
  14.8853104  73.2014358  18.2182086  14.1477622  74.2997707  18.9541173
  22.0432200  87.2475853  18.1664844  21.9702371  88.0530824  18.6784149
  21.6009593  87.4467819  17.3412866  25.1418629  72.2942252  14.3201871
  25.6387329  71.5412215  14.0002942  24.3705611  72.3306569  13.7545081
  32.9948387  77.9982618  15.9620163  32.9838263  78.8807333  15.5914096
  32.1265766  77.6454169  15.7674700  24.5030883  87.1462687  20.3223003
  25.2158855  87.7810152  20.2498905  24.0120912  87.2426553  19.5063005
  26.2248410  81.0513939  11.8940295  25.2904689  81.1715402  11.7244999
  26.4025078  80.1486406  11.6300305  21.7253598  74.4359635  14.0473556
  21.3551386  73.8830676  14.7354462  22.2212691  73.8317769  13.4948556
  29.6120961  76.8931259  12.4290329  30.0781414  77.7259250  12.3550632
  30.0628462  76.4276240  13.1335587  19.5542797  84.8957130  21.1428574
  20.2552256  85.5293613  21.2957968  19.0837912  85.2371862  20.3824213
  27.6797192  83.2375080   9.4276481  27.9557036  83.1231675  10.3370355
  26.8101691  82.8392565   9.3888654  27.5837624  69.2611846  16.4681230
  26.6700704  69.4916073  16.6363437  28.0130726  69.3450290  17.3195263
  27.3544083  77.4501738  18.9681124  26.7015533  77.6977645  18.3133577
  27.7324463  76.6365876  18.6343602  24.3151257  87.4861431  13.0709295
  24.4973651  86.6683087  13.5337047  25.1384243  87.7029123  12.6334185
  24.6493422  86.4129616  10.3324343  25.1781188  85.9022071   9.7194505
  24.9121642  86.0972146  11.1969876  23.4031656  78.1921549  25.4547161
  22.7272293  78.0915678  26.1249537  24.2259290  78.0360762  25.9183159
  15.1510515  84.4293485  18.0759677  15.7363952  83.6837173  18.2087581
  14.9535353  84.7397442  18.9596341   9.7428169  76.9999085  16.7964120
   9.7812269  76.4662676  17.5901238   9.2368462  76.4734291  16.1775097
  22.1454439  89.4988476  19.6904777  22.6972747  89.6620098  20.4553863
  22.4860632  90.0892914  19.0184802  17.1218932  71.8463626  20.2926662
  17.1860258  72.7078457  19.8804060  17.0586052  71.2337628  19.5599021
  16.5971204  73.9186759  23.9399696  17.2243243  73.5363836  24.5537221
  15.7399123  73.7000960  24.3055389  26.9965313  84.3249734  25.5453432
  27.5405217  84.9379692  25.0508387  26.4152158  84.8829312  26.0620445
  25.2822826  87.4470452  16.6768460  25.1573965  86.6460192  16.1679405
  25.9401917  87.9416645  16.1882430  16.9030994  73.8019184  15.8545600
  16.1817580  74.4155152  15.7153073  17.6924250  74.3376949  15.7762246
  27.3457734  85.2479472  18.3048010  26.3988070  85.1284823  18.2326336
  27.6940507  84.3601970  18.3874271  19.7057308  71.1373611  22.1286252
  20.2291709  71.3835907  22.8912561  19.4869641  71.9693645  21.7089389
  15.1024589  73.4077285   9.9957376  14.7737295  72.5274664   9.8132482
  15.4563959  73.3524954  10.8833766  24.3504167  85.0432188  14.5052362
  24.2029130  84.1148895  14.6859932  25.1757661  85.0652279  14.0209437
  18.2166412  73.6950255  10.3632854  18.5562484  74.2236176   9.6411462
  18.6638532  74.0330661  11.1391421  27.9538289  85.8660747  15.5917235
  28.8784837  85.6603608  15.4541686  27.7853593  85.6177148  16.5006576
  20.9109853  72.0787306  19.8135922  20.5706673  71.2795119  20.2156602
  20.2048859  72.3789017  19.2412755  21.5626324  69.1636618  18.2663245
  22.3852394  68.6897096  18.1442135  21.8064388  69.9427102  18.7661931
  20.2034559  72.1924877   8.5626147  20.9242921  72.5706129   8.0589864
  19.5799863  72.9113753   8.6661125  24.3465682  72.8970026   9.4984479
  24.5629296  73.7794664   9.1973307  23.8659749  72.5056239   8.7690121
  19.0864903  75.8555739  16.0755224  18.9409484  76.1696042  16.9679505
  18.6090107  76.4740639  15.5226122  20.9461286  72.8458287  16.1236113
  20.9322855  71.9499380  15.7868411  21.6633714  72.8528951  16.7574399
  22.7987417  73.2795627  18.1689241  22.5405195  74.2012698  18.1673571
  22.2672457  72.8826062  18.8589705  27.7433606  86.3846414  10.9479326
  27.9170483  85.8192837  10.1953179  28.2362497  87.1847309  10.7658816
  13.5610565  78.3961083  19.0142885  13.0164033  79.1720891  19.1463159
  14.4389915  78.7431888  18.8562006  20.3498182  71.7272667  11.3923683
  20.4714093  70.7989313  11.5914571  20.0600224  71.7411353  10.4801999
  23.2189372  69.4127578  14.5290403  23.2411069  69.4766911  13.5742383
  23.6357431  68.5732086  14.7230909  33.5972997  79.1482837  12.5669626
  34.0404143  78.3990162  12.1688749  32.7199507  79.1392973  12.1843358
  28.7308778  85.7013179   8.0476224  29.4259683  86.3219871   8.2663539
  29.0731928  84.8508530   8.3228602  14.3476587  77.5230980  21.9073042
  13.6058323  77.6713615  22.4937672  14.0269331  77.7839245  21.0439791
  30.6300201  83.1512884   9.5763555  31.1551525  83.4900157   8.8512875
  30.5422554  82.2159899   9.3926690  22.2920250  87.0646958  21.7053432
  22.6007376  86.8196105  22.5776131  23.0895732  87.2693596  21.2172302
  22.3140862  89.2184867  13.9358808  21.8745852  88.7261246  14.6291665
  23.0648979  88.6757835  13.6950884  19.7614734  84.7622876  16.0081110
  19.1394743  84.0993581  15.7083338  20.4319601  84.7884008  15.3254758
  19.8339262  73.2404664  25.6013616  19.8827417  74.1166787  25.2191386
  20.3761776  72.6982058  25.0285259  30.3194107  83.7845788  24.8814753
  29.5289651  83.7669927  24.3419252  30.0827462  84.3234081  25.6363790
  30.4391982  80.6338254  22.1947482  30.4889987  80.4688262  23.1363004
  30.3305906  79.7665513  21.8045362  27.7295745  76.6169182  23.5106788
  28.6305607  76.4775647  23.2190786  27.8043719  76.7823637  24.4504966
  22.0638550  73.9936037  22.3559975  21.1941859  74.2869603  22.0842563
  22.2998030  74.5776482  23.0767238  31.9410179  83.0535196  22.4389503
  31.6494987  83.4165176  23.2752964  31.3282310  82.3402204  22.2602835
  33.1405861  80.6188075  14.9592073  33.9752753  81.0577879  15.1229634
  33.2764990  80.1426729  14.1400319  30.1897367  78.1767810  20.9069561
  30.6651489  78.3695457  20.0988413  29.2662933  78.2326996  20.6612945
  24.7677584  70.2115654  19.8725395  25.2859528  70.9476681  19.5471884
  24.4132717  70.5179647  20.7072154  25.0190178  66.6315936  15.3926292
  25.2991932  65.9639125  16.0186718  25.8040785  66.8245032  14.8800955
  28.8899036  75.0533570  19.1397867  29.8416459  75.1531668  19.1610091
  28.7202487  74.2611839  19.6495951  26.9113416  72.1389154  19.3257268
  26.3163348  72.4194166  18.6303756  26.6263113  72.6283054  20.0974009
  28.6708923  85.4077951   5.0463848  28.5922554  85.0737814   5.9399606
  29.4918590  85.8999719   5.0455320  31.3687114  78.2739690  18.2540166
  31.3363434  77.3355691  18.4399850  31.9787738  78.3523727  17.5205991
  31.5181603  75.0650733  18.2998450  31.0020651  74.2809190  18.1128378
  32.4021551  74.7369450  18.4644969  29.1792330  68.8091749  14.2594262
  28.9817151  68.5006837  15.1437594  29.7892035  69.5353388  14.3892192
  37.1863664  79.3355697  17.3946203  37.9167052  79.0740985  17.9553907
  36.5770609  78.5984419  17.4348271  35.2678961  77.4763559  17.9920654
  34.5412125  77.3419524  17.3837146  34.8526248  77.7840388  18.7977372
  23.0909138  81.1953489  25.7568027  24.0112147  81.3732088  25.9508074
  23.0558721  80.2509534  25.6047727  12.3091303  76.3892083  14.6821302
  11.9894087  75.5357391  14.3895676  11.7624731  76.6040661  15.4379269
  16.0871210  79.1054524  18.3990809  16.3057220  80.0371632  18.4178842
  16.4996984  78.7462498  19.1845612  23.0075428  69.6122609  10.3866497
  22.1976156  69.2669694  10.7621743  23.6959845  69.3030153  10.9754109
  24.9365976  68.6900656  12.0090794  25.4897015  69.1096109  12.6680817
  25.1736063  67.7636404  12.0513750  20.9599075  74.6787730  27.7893558
  20.8595802  75.6282087  27.7205649  20.7420617  74.3505968  26.9169628
  20.1612147  71.9272655   4.3734235  21.0231311  72.2527553   4.6330052
  20.3462491  71.1404151   3.8607301  12.1779563  80.0094994  16.6514424
  11.4843034  79.5948947  16.1384378  12.9252554  80.0515531  16.0547843
  28.3144783  70.8001181  11.5169458  27.7343452  71.4585985  11.1347510
  28.0480716  69.9778526  11.1056875  26.7648350  70.2006239  13.7190778
  27.2648128  70.3122773  12.9105097  27.4083958  69.8967292  14.3591587
  20.8230345  78.1084868  26.6058619  20.3397427  78.9085229  26.8122508
  20.9091284  78.1192813  25.6526063  14.0916305  79.9413248  14.5280439
  14.0686993  80.0400935  13.5762322  14.4016942  80.7878399  14.8497605
  16.7503683  81.9989403  18.6427053  17.7046936  81.9673345  18.5756985
  16.5516207  81.5380027  19.4577279  17.3403065  80.5690519  21.2097851
  18.1595954  81.0634598  21.2332688  17.6139873  79.6522487  21.1815418
  27.0969661  72.9601271  10.5725806  26.2095516  73.2450922  10.3546001
  27.5123650  72.7995035   9.7253083  30.4484197  72.9847792  14.2880145
  31.2244588  73.4744245  14.5604762  29.7232332  73.4105847  14.7452015
  32.8856756  73.6975412  15.3454086  33.4801247  73.4571148  14.6347394
  32.9583340  72.9782542  15.9727622  27.0710685  78.4755807  10.7876096
  27.0145886  78.9324359   9.9483729  27.6239027  77.7146492  10.6098939
  30.8815491  74.2645539  11.6126216  30.6252425  73.8642175  12.4434423
  30.2568359  74.9789333  11.4876355  35.1927829  77.0041613  14.1197507
  34.6327387  77.0734802  14.8929069  34.5871332  76.8282597  13.3997003
  18.2623038  88.4378340  15.8715693  18.1455422  89.3823772  15.7694384
  17.4415484  88.1351901  16.2601493  28.1499572  83.1628475   6.7172286
  28.9845176  82.7309674   6.5349761  27.9883915  82.9910489   7.6449181
  27.8045464  79.6660589   8.0828625  27.7494268  79.5004860   7.1417070
  27.1791520  80.3736622   8.2390815  12.5937979  74.9028653  21.9090048
  13.2396843  74.3927607  22.3977273  12.3855130  75.6397335  22.4833473
  25.1191371  81.9709500  27.4082188  25.9882531  82.1450153  27.0468823
  24.6398123  82.7903917  27.2857918  21.1141590  69.1668698   7.6613944
  21.1020260  70.1110538   7.8182215  22.0065012  68.9838843   7.3673405
  19.2877552  89.0906602  19.0871622  20.1904798  89.1230212  19.4038117
  19.0614922  88.1607052  19.1017958  21.0431154  87.8437588  15.7481701
  20.0926785  87.8439450  15.6346073  21.3463640  87.0970323  15.2317735
  24.9293709  65.7611474  11.9159881  24.1626105  65.2069961  12.0616563
  25.3404414  65.8333343  12.7774032  16.9335470  72.0496270  26.0065062
  17.7966932  71.6933075  26.2168386  16.3600881  71.7110165  26.6940466
  36.7783847  93.6798126  16.8127463  37.4162257  93.5604874  16.1090803
  36.6604690  94.6278970  16.8715415  33.5873554  93.6325555  16.7488988
  33.2492065  93.5166619  15.8609522  34.4563322  93.2316720  16.7289994
  29.4460369  95.4861031  12.7385879  28.8825234  95.3950968  11.9702166
  29.3312764  94.6660935  13.2188371  34.0693336  94.7860406  22.7075193
  34.0581977  94.3913205  21.8355697  34.2313976  94.0526479  23.3008965
  26.9924801  96.9812223  15.5770099  27.7846093  96.6403047  15.1616398
  27.2321451  97.0907198  16.4972252  30.7900598  97.5697518  21.6554377
  30.4990464  98.4743149  21.5401043  31.4257582  97.6114046  22.3698447
  31.7156804  94.9474367  18.2455737  32.3120377  94.7230389  17.5312700
  31.7731776  94.2059112  18.8481185  36.3325116  91.4049580  13.8880671
  37.1188205  90.9869003  13.5371088  36.5963820  92.3095672  14.0562319
  36.5035193  96.8422431   8.5869328  35.8681026  96.9157057   9.2990232
  36.1732599  97.4316029   7.9088407  41.7333543  91.3424813  14.7913649
  42.4658715  90.7724030  15.0251479  40.9772899  90.9546414  15.2320155
  33.3509663  93.7652055  11.9876992  32.9867870  93.2382676  12.6989913
  34.2076778  93.3750524  11.8143477  32.9915150  88.7941955   6.9838340
  33.1589552  89.6622191   7.3508811  32.8012319  88.9569236   6.0599630
  35.7490483  97.2558934  18.6504171  35.4491206  98.1583972  18.5419978
  35.4041542  96.9891117  19.5025324  29.2002964  93.7072730  14.6840875
  28.2753461  93.5748945  14.8918567  29.4487377  94.4866950  15.1810818
  39.1487627  89.7741474  16.3301608  38.2404504  89.7056882  16.0360369
  39.0975222  90.2513419  17.1583434  32.9704370  91.2499612   7.9685007
  32.8503996  91.6956663   8.8070488  32.2756959  91.5984930   7.4098545
  26.5611775  93.3506004  15.5184664  26.6904156  93.6040483  16.4324076
  25.8809227  93.9433712  15.1989319  33.2228492  91.1931119  24.2736505
  32.4461826  91.7525040  24.2639370  33.8619055  91.6787902  24.7951376
  41.0149273  87.9757912  18.1079482  40.3723653  88.2690445  17.4619277
  40.5104201  87.8610833  18.9132679  38.6689437  91.7221085   8.7965341
  39.5807293  91.9548472   8.6213039  38.1599084  92.3058130   8.2340420
  31.4774865  94.0016573  23.8354472  32.2189549  94.5401617  23.5589296
  30.7711850  94.6282861  23.9926024  36.9530204  96.1445713  22.4326634
  37.3613560  95.7028124  21.6881266  36.2307466  95.5698341  22.6860827
  33.3061274  91.0818320  19.8060191  34.1522469  91.5057734  19.9494840
  33.2459912  90.4251944  20.4998754  37.2759019  96.7046904  16.1878923
  36.6467881  96.8692618  15.4854991  36.8884681  97.1188513  16.9589887
  41.1548251  97.6401342  13.5423287  40.4699289  98.0200243  12.9920320
  41.2392100  98.2496668  14.2755234  38.4099182  95.2861301  20.1418630
  38.6216078  95.9293061  19.4653011  38.3628931  94.4523617  19.6740560
  36.0125411  87.8979121  17.0455202  35.1509890  88.1960375  17.3371940
  36.0387846  88.1149520  16.1136235  32.8286981  96.4421312  13.4529008
  33.2925326  96.7209015  12.6633630  32.5643779  95.5404756  13.2702099
  29.7211062  95.9892793  16.3908771  30.2912419  96.4180062  15.7526256
  30.3119174  95.7075378  17.0892957  31.7655867  92.5644464  10.2618573
  32.4679910  93.0165508  10.7292499  31.4336495  91.9228283  10.8898466
  30.2136228  91.1556221  24.6369782  29.5834889  91.8372502  24.8705179
  30.1072316  91.0439303  23.6922921  25.5081201  90.8228017  15.5635707
  24.7180255  91.0785545  15.0875817  25.9992448  91.6376355  15.6687747
  39.5245010  98.1633256  18.3140987  40.3462454  97.7613443  18.0323669
  39.5207413  98.0601490  19.2657103  27.4595946  91.1872596  12.5219183
  26.6627109  91.2991290  13.0402679  27.2321538  91.5259248  11.6560074
  33.2901614  97.7117299  20.4701698  33.3546046  98.1737707  21.3059870
  32.5812538  97.0814664  20.5984008  23.7918904  91.0758507  17.9950697
  24.0426942  91.9605517  18.2608273  24.3278452  90.8963109  17.2225789
  47.6151003  94.5072005  14.6625959  46.8614712  93.9379403  14.5069963
  47.7498545  94.4734669  15.6096594  33.0049631  99.3785407  10.3380678
  32.8695306 100.2236943  10.7665526  33.5459444  99.5804685   9.5746612
  29.4916971  85.4576987  26.9995033  29.0983917  84.9043185  27.6742678
  30.3083111  85.7687565  27.3901551  32.4084932  86.8734866  24.5915290
  33.1494645  87.4742019  24.5119752  32.6402855  86.1312504  24.0333333
  27.5526270  92.0591233  22.8693520  27.4379785  91.1576490  23.1700619
  26.6970788  92.3054930  22.5178336  34.6318108 100.0008973  24.4681020
  34.1881962  99.2145352  24.1501925  35.2935321 100.1888124  23.8024911
  29.3905229 101.5304775  18.9941699  29.9412654 101.4021838  18.2218693
  28.5516705 101.8299664  18.6436592  36.7299346 100.2811773  22.4962422
  36.7117821 101.1020654  22.0042691  37.6519266 100.1565849  22.7212563
  33.1872400  97.7955903  23.3385930  33.7200737  97.0344191  23.1085238
  32.6586481  97.5029555  24.0810084  36.3542095  82.9015969  18.8679572
  36.0106364  83.7917610  18.7918682  36.7221058  82.7117626  18.0049157
  36.3192378  92.8924580   7.3752007  35.8039001  93.6629185   7.6140394
  36.0469686  92.2189716   7.9985068  33.9039489  87.7374281  12.4337245
  33.0481085  87.3481131  12.2542884  34.3166441  87.8166241  11.5737031
  35.4338635  85.2720624  16.8328805  34.9303431  85.2350759  16.0196610
  35.7269242  86.1813367  16.8925462  31.6781521  85.3559354  15.8394987
  32.5434518  85.1602162  15.4800876  31.7459030  85.1269705  16.7664343
  41.2926652  95.6456935   9.3105180  40.5156095  95.3068094   8.8660342
  41.9718133  95.6509558   8.6360145  36.1078681  90.7651672   9.2011788
  35.8028816  91.0797821  10.0521931  37.0609123  90.8433092   9.2439121
  34.5525113  96.9241895  10.8504742  34.0246474  96.1894655  10.5377979
  34.0512615  97.7016572  10.6044710  39.5317959  95.1190916  15.9671788
  38.8741633  95.8090177  16.0551917  40.3358358  95.5087348  16.3105775
  29.2843840  87.5861562  13.2111353  29.8587592  87.3636743  12.4784546
  29.8714823  87.6550256  13.9639955  38.3423418  93.4735288  14.0175730
  38.8555299  94.1065280  14.5197440  38.9924641  92.8736484  13.6519090
  31.5866508  84.4602810  11.9386423  30.9330920  84.1451828  11.3143038
  31.5446982  83.8378551  12.6646246  34.8204248  90.9484744  16.2634071
  33.9026810  91.1699691  16.1055759  35.2364392  91.0231054  15.4045778
  35.6039296  92.3476160  11.3936751  36.3511115  92.8597557  11.0843873
  35.8730886  92.0260212  12.2541144  33.8765946  94.8434700   8.3763705
  32.9677166  94.5593733   8.4736175  33.9061030  95.2633779   7.5167012
  39.1085214  98.4541290  12.1454873  38.6547541  97.6132200  12.2020063
  38.4779180  99.0902688  12.4829653  38.0518133  89.3833276  13.3755540
  37.3140890  88.8710662  13.7065783  38.3044907  88.9433658  12.5638817
  37.5518153 100.2917787  13.0804691  37.8441127 100.8522844  12.3617056
  38.0616774 100.5846348  13.8357850  38.1529761  82.1609528  13.9697309
  38.4588637  81.3006891  13.6823224  38.8782365  82.7527148  13.7696303
  32.4250840  92.4563321  14.4773500  32.4799450  91.5037157  14.4015977
  31.6142042  92.6122760  14.9614799  30.3643200  91.0740381  12.2363879
  29.5511066  91.3734551  12.6429071  30.8602195  90.6796070  12.9538362
  32.5151778 101.0698138  14.1698144  32.4727957 101.2958984  13.2406676
  33.4314477 100.8361512  14.3183945  41.6915149  94.6600641  11.7728102
  41.5533048  94.8502237  10.8449291  41.3351368  95.4220024  12.2296153
  29.8557275  88.6458736  17.8525114  30.4956654  88.5047495  17.1548078
  29.0234806  88.3593250  17.4763716  41.7184529  96.7277168  16.7839374
  42.1521035  96.6352457  17.6322428  42.4316109  96.7034669  16.1459390
  30.6317579  97.9461167  13.9660107  31.4258177  97.4511487  13.7642682
  29.9209271  97.4179030  13.6027812  35.4512423 100.3279262  18.3172474
  35.5049446 100.8970199  19.0850190  34.5827205 100.4981147  17.9526511
  26.8585891  88.6159061  12.6298101  27.1192709  89.5304395  12.5207262
  27.6803064  88.1483504  12.7794714  28.3310817  90.0296818  19.7996926
  29.0033870  89.8214181  19.1509574  27.5040603  89.8318904  19.3602158
  42.5800078  96.7700869  19.3172259  42.7735968  97.6746679  19.5631534
  42.4800696  96.3108288  20.1510844  37.6415187  96.9207612  24.8913140
  37.4900693  96.6918163  23.9743223  37.6319866  97.8778213  24.9044485
  34.4100523  94.4939524  19.8759406  35.3392583  94.6450684  19.7028373
  33.9891553  94.5823545  19.0208053  33.2088855  98.5190189  17.6457944
  33.0699941  98.1508973  18.5183882  32.4203451  99.0337828  17.4741902
  34.7594070  97.8971791  15.0346782  34.4243903  97.8572561  15.9304431
  34.2598016  97.2316507  14.5617192  28.7338314  93.3039421  20.5599363
  28.5958112  92.5719660  21.1610902  29.6443238  93.2148322  20.2783551
  37.6953262  95.2427826   5.3083841  37.0782432  94.5174654   5.2116894
  37.2269750  96.0037186   4.9650916  31.3620615  93.0159381  20.0483042
  32.0720233  92.3752573  20.0069661  31.3189923  93.2672276  20.9709223
  39.3507393  99.9526734  22.9689622  39.2919940  99.2685954  22.3020205
  39.7526912 100.6945724  22.5170248  30.0749549  90.0024599  21.8678682
  29.5386906  89.5515337  22.5200278  29.4866257  90.1370507  21.1249146
  39.3524801  97.9166318  21.2003601  38.4651579  97.5792240  21.3230000
  39.9223352  97.1849349  21.4372367  25.8088670  89.1380606  18.9531676
  25.7246859  88.5306276  18.2182086  24.9871376  89.6289625  18.9541173
  32.8825954 102.5767770  18.1664844  32.8096126 103.3822742  18.6784149
  32.4403347 102.7759736  17.3412866  35.9812384  87.6234170  14.3201871
  36.4781083  86.8704132  14.0002942  35.2099365  87.6598487  13.7545081
  43.8342141  93.3274535  15.9620163  43.8232017  94.2099251  15.5914096
  42.9659521  92.9746086  15.7674700  35.3424638 102.4754604  20.3223003
  36.0552610 103.1102069  20.2498905  34.8514666 102.5718470  19.5063005
  37.0642165  96.3805857  11.8940295  36.1298443  96.5007320  11.7244999
  37.2418833  95.4778324  11.6300305  32.5647353  89.7651553  14.0473556
  32.1945140  89.2122593  14.7354462  33.0606445  89.1609686  13.4948556
  40.4514716  92.2223176  12.4290329  40.9175168  93.0551168  12.3550632
  40.9022216  91.7568158  13.1335587  30.3936551 100.2249048  21.1428574
  31.0946011 100.8585531  21.2957968  29.9231666 100.5663779  20.3824213
  38.5190947  98.5666998   9.4276481  38.7950791  98.4523592  10.3370355
  37.6495446  98.1684483   9.3888654  38.4231379  84.5903763  16.4681230
  37.5094458  84.8207990  16.6363437  38.8524480  84.6742207  17.3195263
  38.1937837  92.7793655  18.9681124  37.5409287  93.0269563  18.3133577
  38.5718217  91.9657794  18.6343602  35.1545011 102.8153349  13.0709295
  35.3367406 101.9975004  13.5337047  35.9777997 103.0321041  12.6334185
  35.4887176 101.7421534  10.3324343  36.0174943 101.2313988   9.7194505
  35.7515396 101.4264064  11.1969876  34.2425410  93.5213466  25.4547161
  33.5666047  93.4207596  26.1249537  35.0653044  93.3652680  25.9183159
  25.9904269  99.7585403  18.0759677  26.5757706  99.0129091  18.2087581
  25.7929108 100.0689360  18.9596341  20.5821924  92.3291003  16.7964120
  20.6206023  91.7954594  17.5901238  20.0762217  91.8026209  16.1775097
  32.9848193 104.8280394  19.6904777  33.5366501 104.9912015  20.4553863
  33.3254386 105.4184832  19.0184802  27.9612686  87.1755544  20.2926662
  28.0254013  88.0370375  19.8804060  27.8979806  86.5629545  19.5599021
  27.4364959  89.2478676  23.9399696  28.0636998  88.8655753  24.5537221
  26.5792878  89.0292878  24.3055389  37.8359067  99.6541651  25.5453432
  38.3798971 100.2671610  25.0508387  37.2545912 100.2121230  26.0620445
  36.1216580 102.7762369  16.6768460  35.9967720 101.9752109  16.1679405
  36.7795671 103.2708563  16.1882430  27.7424749  89.1311102  15.8545600
  27.0211334  89.7447070  15.7153073  28.5318004  89.6668867  15.7762246
  38.1851489 100.5771389  18.3048010  37.2381824 100.4576741  18.2326336
  38.5334262  99.6893887  18.3874271  30.5451062  86.4665528  22.1286252
  31.0685464  86.7127825  22.8912561  30.3263395  87.2985563  21.7089389
  25.9418343  88.7369203   9.9957376  25.6131049  87.8566582   9.8132482
  26.2957714  88.6816872  10.8833766  35.1897922 100.3724106  14.5052362
  35.0422884  99.4440813  14.6859932  36.0151415 100.3944196  14.0209437
  29.0560166  89.0242173  10.3632854  29.3956239  89.5528094   9.6411462
  29.5032287  89.3622579  11.1391421  38.7932044 101.1952664  15.5917235
  39.7178591 100.9895526  15.4541686  38.6247347 100.9469066  16.5006576
  31.7503607  87.4079223  19.8135922  31.4100427  86.6087037  20.2156602
  31.0442613  87.7080934  19.2412755  32.4020079  84.4928536  18.2663245
  33.2246148  84.0189014  18.1442135  32.6458142  85.2719020  18.7661931
  31.0428313  87.5216794   8.5626147  31.7636676  87.8998047   8.0589864
  30.4193618  88.2405671   8.6661125  35.1859436  88.2261943   9.4984479
  35.4023051  89.1086581   9.1973307  34.7053503  87.8348157   8.7690121
  29.9258658  91.1847657  16.0755224  29.7803238  91.4987960  16.9679505
  29.4483861  91.8032557  15.5226122  31.7855041  88.1750205  16.1236113
  31.7716609  87.2791298  15.7868411  32.5027469  88.1820868  16.7574399
  33.6381171  88.6087545  18.1689241  33.3798949  89.5304615  18.1673571
  33.1066212  88.2117979  18.8589705  38.5827360 101.7138332  10.9479326
  38.7564238 101.1484754  10.1953179  39.0756251 102.5139227  10.7658816
  24.4004320  93.7253001  19.0142885  23.8557788  94.5012809  19.1463159
  25.2783670  94.0723805  18.8562006  31.1891936  87.0564585  11.3923683
  31.3107848  86.1281231  11.5914571  30.8993979  87.0703271  10.4801999
  34.0583127  84.7419495  14.5290403  34.0804824  84.8058828  13.5742383
  34.4751186  83.9024004  14.7230909  44.4366751  94.4774755  12.5669626
  44.8797897  93.7282080  12.1688749  43.5593261  94.4684891  12.1843358
  25.1870342  92.8522897  21.9073042  24.4452078  93.0005533  22.4937672
  24.8663086  93.1131163  21.0439791  41.4693956  98.4804802   9.5763555
  41.9945280  98.8192075   8.8512875  41.3816308  97.5451817   9.3926690
  33.1314004 102.3938875  21.7053432  33.4401131 102.1488022  22.5776131
  33.9289486 102.5985514  21.2172302  33.1534616 104.5476785  13.9358808
  32.7139607 104.0553164  14.6291665  33.9042733 104.0049753  13.6950884
  30.6008489 100.0914794  16.0081110  29.9788498  99.4285499  15.7083338
  31.2713355 100.1175926  15.3254758  30.6733016  88.5696582  25.6013616
  30.7221171  89.4458705  25.2191386  31.2155530  88.0273975  25.0285259
  41.1587862  99.1137705  24.8814753  40.3683405  99.0961844  24.3419252
  40.9221216  99.6525999  25.6363790  41.2785737  95.9630172  22.1947482
  41.3283742  95.7980179  23.1363004  41.1699660  95.0957431  21.8045362
  32.9032304  89.3227955  22.3559975  32.0335614  89.6161521  22.0842563
  33.1391785  89.9068400  23.0767238  42.7803934  98.3827113  22.4389503
  42.4888742  98.7457094  23.2752964  42.1676065  97.6694122  22.2602835
  43.9799616  95.9479993  14.9592073  44.8146507  96.3869797  15.1229634
  44.1158745  95.4718646  14.1400319  41.0291122  93.5059728  20.9069561
  41.5045243  93.6987374  20.0988413  40.1056687  93.5618914  20.6612945
  35.6071338  85.5407571  19.8725395  36.1253282  86.2768598  19.5471884
  35.2526471  85.8471565  20.7072154  35.8583932  81.9607854  15.3926292
  36.1385686  81.2931043  16.0186718  36.6434539  82.1536950  14.8800955
  42.2080869  93.6031608  18.2540166  42.1757189  92.6647608  18.4399850
  42.8181492  93.6815644  17.5205991  42.3575357  90.3942651  18.2998450
  41.8414406  89.6101108  18.1128378  43.2415306  90.0661368  18.4644969
  40.0186084  84.1383667  14.2594262  39.8210905  83.8298755  15.1437594
  40.6285790  84.8645306  14.3892192  48.0257418  94.6647615  17.3946203
  48.7560807  94.4032903  17.9553907  47.4164364  93.9276336  17.4348271
  46.1072716  92.8055477  17.9920654  45.3805879  92.6711442  17.3837146
  45.6920002  93.1132306  18.7977372  33.9302892  96.5245407  25.7568027
  34.8505901  96.7024006  25.9508074  33.8952475  95.5801452  25.6047727
  23.1485057  91.7184000  14.6821302  22.8287841  90.8649309  14.3895676
  22.6018485  91.9332579  15.4379269  26.9264965  94.4346441  18.3990809
  27.1450974  95.3663549  18.4178842  27.3390738  94.0754416  19.1845612
  33.8469182  84.9414527  10.3866497  33.0369911  84.5961612  10.7621743
  34.5353599  84.6322071  10.9754109  35.7759731  84.0192574  12.0090794
  36.3290769  84.4388027  12.6680817  36.0129817  83.0928322  12.0513750
  31.7992830  90.0079647  27.7893558  31.6989557  90.9574004  27.7205649
  31.5814372  89.6797886  26.9169628  31.0005901  87.2564572   4.3734235
  31.8625065  87.5819471   4.6330052  31.1856245  86.4696068   3.8607301
  23.0173317  95.3386912  16.6514424  22.3236788  94.9240865  16.1384378
  23.7646308  95.3807448  16.0547843  39.1538538  86.1293099  11.5169458
  38.5737207  86.7877903  11.1347510  38.8874470  85.3070443  11.1056875
  37.6042104  85.5298156  13.7190778  38.1041882  85.6414691  12.9105097
  38.2477712  85.2259209  14.3591587  31.6624100  93.4376786  26.6058619
  31.1791182  94.2377146  26.8122508  31.7485039  93.4484731  25.6526063
  24.9310060  95.2705166  14.5280439  24.9080748  95.3692853  13.5762322
  25.2410696  96.1170317  14.8497605  27.5897437  97.3281321  18.6427053
  28.5440691  97.2965263  18.5756985  27.3909961  96.8671945  19.4577279
  28.1796820  95.8982437  21.2097851  28.9989709  96.3926515  21.2332688
  28.4533627  94.9814405  21.1815418  37.9363416  88.2893189  10.5725806
  37.0489271  88.5742840  10.3546001  38.3517405  88.1286953   9.7253083
  41.2877952  88.3139710  14.2880145  42.0638342  88.8036163  14.5604762
  40.5626086  88.7397764  14.7452015  43.7250510  89.0267329  15.3454086
  44.3195001  88.7863065  14.6347394  43.7977094  88.3074460  15.9727622
  37.9104439  93.8047725  10.7876096  37.8539641  94.2616276   9.9483729
  38.4632782  93.0438410  10.6098939  41.7209245  89.5937457  11.6126216
  41.4646180  89.1934093  12.4434423  41.0962113  90.3081251  11.4876355
  46.0321583  92.3333530  14.1197507  45.4721141  92.4026719  14.8929069
  45.4265087  92.1574515  13.3997003  38.9893327  98.4920393   6.7172286
  39.8238931  98.0601591   6.5349761  38.8277670  98.3202407   7.6449181
  38.6439219  94.9952506   8.0828625  38.5888023  94.8296778   7.1417070
  38.0185274  95.7028539   8.2390815  23.4331734  90.2320571  21.9090048
  24.0790597  89.7219525  22.3977273  23.2248885  90.9689252  22.4833473
  35.9585126  97.3001418  27.4082188  36.8276286  97.4742070  27.0468823
  35.4791877  98.1195835  27.2857918  31.9535344  84.4960615   7.6613944
  31.9414014  85.4402455   7.8182215  32.8458766  84.3130761   7.3673405
  30.1271306 104.4198519  19.0871622  31.0298553 104.4522129  19.4038117
  29.9008676 103.4898970  19.1017958  31.8824908 103.1729506  15.7481701
  30.9320539 103.1731367  15.6346073  32.1857394 102.4262240  15.2317735
  35.7687464  81.0903392  11.9159881  35.0019860  80.5361879  12.0616563
  36.1798169  81.1625261  12.7774032  27.7729225  87.3788188  26.0065062
  28.6360686  87.0224993  26.2168386  27.1994635  87.0402083  26.6940466
  47.6177602 109.0090044  16.8127463  48.2556012 108.8896791  16.1090803
  47.4998445 109.9570888  16.8715415  44.4267308 108.9617472  16.7488988
  44.0885820 108.8458537  15.8609522  45.2957076 108.5608637  16.7289994
  50.0952718 100.3838305  19.2508258  49.7636042 101.2533716  19.0269473
  49.4998331 100.0674589  19.9302288  49.9881381 105.1033391  16.3301608
  49.0798258 105.0348800  16.0360369  49.9368977 105.5805336  17.1583434
  44.0622247 106.5223037  24.2736505  43.2855581 107.0816957  24.2639370
  44.7012810 107.0079820  24.7951376  51.8543027 103.3049830  18.1079482
  51.2117408 103.5982363  17.4619277  51.3497956 103.1902750  18.9132679
  44.1455029 106.4110238  19.8060191  44.9916224 106.8349651  19.9494840
  44.0853666 105.7543862  20.4998754  47.2954474 104.0714606  21.4641364
  47.0515406 104.8256667  20.9275640  47.5714405 104.4499954  22.2988612
  49.2492937 110.6153218  20.1418630  49.4609832 111.2584978  19.4653011
  49.2022685 109.7815535  19.6740560  46.8519166 103.2271039  17.0455202
  45.9903645 103.5252293  17.3371940  46.8781600 103.4441438  16.1136235
  41.0529983 106.4848139  24.6369782  40.4228643 107.1664419  24.8705179
  40.9466071 106.3731220  23.6922921  36.3474955 106.1519935  15.5635707
  35.5574009 106.4077463  15.0875817  36.8386203 106.9668272  15.6687747
  38.2989701 106.5164514  12.5219183  37.5020864 106.6283208  13.0402679
  38.0715293 106.8551166  11.6560074  40.3310726 100.7868904  26.9995033
  39.9377671 100.2335103  27.6742678  41.1476866 101.0979483  27.3901551
  43.2478687 102.2026784  24.5915290  43.9888400 102.8033937  24.5119752
  43.4796609 101.4604421  24.0333333  47.1935849  98.2307886  18.8679572
  46.8500119  99.1209528  18.7918682  47.5614812  98.0409544  18.0049157
  44.7433243 103.0666198  12.4337245  43.8874840 102.6773049  12.2542884
  45.1560195 103.1458159  11.5737031  46.2732390 100.6012542  16.8328805
  45.7697185 100.5642677  16.0196610  46.5662997 101.5105284  16.8925462
  42.5175276 100.6851271  15.8394987  43.3828273 100.4894080  15.4800876
  42.5852785 100.4561623  16.7664343  40.1237595 102.9153479  13.2111353
  40.6981347 102.6928661  12.4784546  40.7108577 102.9842174  13.9639955
  42.4260263  99.7894728  11.9386423  41.7724675  99.4743745  11.3143038
  42.3840737  99.1670469  12.6646246  45.6598003 106.2776662  16.2634071
  44.7420564 106.4991609  16.1055759  46.0758147 106.3522972  15.4045778
  48.9923515  97.4901446  13.9697309  49.2982392  96.6298809  13.6823224
  49.7176120  98.0819066  13.7696303  43.2644595 107.7855239  14.4773500
  43.3193205 106.8329075  14.4015977  42.4535797 107.9414678  14.9614799
  41.2036955 106.4032298  12.2363879  40.3904820 106.7026469  12.6429071
  41.6995949 106.0087987  12.9538362  46.8011166 106.8674123  21.0678773
  47.1560554 107.0945596  21.9273239  47.4483298 107.1992500  20.4456028
  40.6951030 103.9750654  17.8525114  41.3350409 103.8339413  17.1548078
  39.8628560 103.6885167  17.4763716  37.6979646 103.9450979  12.6298101
  37.9586463 104.8596312  12.5207262  38.5196818 103.4775422  12.7794714
  39.1704571 105.3588736  19.7996926  39.8427625 105.1506098  19.1509574
  38.3434358 105.1610822  19.3602158  45.0730143 101.9850677  21.8162586
  44.4258058 102.6840627  21.7227063  45.8431159 102.4186821  22.1838835
  45.2494278 109.8231442  19.8759406  46.1786338 109.9742602  19.7028373
  44.8285308 109.9115463  19.0208053  42.2014369 108.3451298  20.0483042
  42.9113988 107.7044491  20.0069661  42.1583677 108.5964193  20.9709223
  40.9143303 105.3316516  21.8678682  40.3780660 104.8807255  22.5200278
  40.3260012 105.4662425  21.1249146  36.6482424 104.4672524  18.9531676
  36.5640613 103.8598194  18.2182086  35.8265131 104.9581542  18.9541173
  46.8206138 102.9526088  14.3201871  47.3174838 102.1996050  14.0002942
  46.0493120 102.9890404  13.7545081  43.4041107 105.0943471  14.0473556
  43.0338895 104.5414511  14.7354462  43.9000200 104.4901604  13.4948556
  49.2625133  99.9195681  16.4681230  48.3488213 100.1499908  16.6363437
  49.6918235 100.0034125  17.3195263  49.0331592 108.1085573  18.9681124
  48.3803042 108.3561480  18.3133577  49.4111972 107.2949711  18.6343602
  45.0819165 108.8505384  25.4547161  44.4059802 108.7499513  26.1249537
  45.9046799 108.6944598  25.9183159  38.8006441 102.5047461  20.2926662
  38.8647767 103.3662292  19.8804060  38.7373561 101.8921463  19.5599021
  38.2758713 104.5770594  23.9399696  38.9030752 104.1947671  24.5537221
  37.4186632 104.3584796  24.3055389  38.5818503 104.4603020  15.8545600
  37.8605089 105.0738987  15.7153073  39.3711759 104.9960784  15.7762246
  41.3844817 101.7957446  22.1286252  41.9079218 102.0419743  22.8912561
  41.1657150 102.6277481  21.7089389  36.7812098 104.0661121   9.9957376
  36.4524804 103.1858500   9.8132482  37.1351468 104.0108789  10.8833766
  42.5897362 102.7371141  19.8135922  42.2494182 101.9378954  20.2156602
  41.8836368 103.0372852  19.2412755  43.2413833  99.8220454  18.2663245
  44.0639903  99.3480932  18.1442135  43.4851897 100.6010937  18.7661931
  40.7652412 106.5139574  16.0755224  40.6196993 106.8279877  16.9679505
  40.2877616 107.1324475  15.5226122  42.6248795 103.5042122  16.1236113
  42.6110364 102.6083216  15.7868411  43.3421223 103.5112786  16.7574399
  44.4774926 103.9379462  18.1689241  44.2192704 104.8596533  18.1673571
  43.9459966 103.5409897  18.8589705  42.0285691 102.3856502  11.3923683
  42.1501602 101.4573149  11.5914571  41.7387733 102.3995188  10.4801999
  44.8976881 100.0711413  14.5290403  44.9198578 100.1350746  13.5742383
  45.3144940  99.2315922  14.7230909  41.5126771 103.8988500  25.6013616
  41.5614926 104.7750623  25.2191386  42.0549285 103.3565893  25.0285259
  52.1179491 111.2922089  22.1947482  52.1677496 111.1272097  23.1363004
  52.0093415 110.4249348  21.8045362  49.4083254 107.2753017  23.5106788
  50.3093116 107.1359482  23.2190786  49.4831228 107.4407472  24.4504966
  43.7426059 104.6519872  22.3559975  42.8729368 104.9453438  22.0842563
  43.9785539 105.2360317  23.0767238  51.8684876 108.8351646  20.9069561
  52.3438998 109.0279292  20.0988413  50.9450442 108.8910831  20.6612945
  46.4465093 100.8699489  19.8725395  46.9647037 101.6060516  19.5471884
  46.0920226 101.1763482  20.7072154  46.6977687  97.2899772  15.3926292
  46.9779441  96.6222961  16.0186718  47.4828294  97.4828867  14.8800955
  50.5686545 105.7117406  19.1397867  51.5203968 105.8115503  19.1610091
  50.3989996 104.9195674  19.6495951  48.5900925 102.7972989  19.3257268
  47.9950857 103.0778002  18.6303756  48.3050621 103.2866890  20.0974009
  53.1969112 105.7234569  18.2998450  52.6808160 104.9393025  18.1128378
  54.0809060 105.3953285  18.4644969  50.8579839  99.4675584  14.2594262
  50.6604660  99.1590673  15.1437594  51.4679544 100.1937223  14.3892192
  44.6862937 100.2706444  10.3866497  43.8763665  99.9253529  10.7621743
  45.3747354  99.9613988  10.9754109  46.6153485  99.3484491  12.0090794
  47.1684524  99.7679945  12.6680817  46.8523571  98.4220239  12.0513750
  42.6386584 105.3371565  27.7893558  42.5383311 106.2865922  27.7205649
  42.4208126 105.0089804  26.9169628  48.4435859 100.8590074  13.7190778
  48.9435637 100.9706609  12.9105097  49.0871467 100.5551127  14.3591587
  46.6081218  96.4195310  11.9159881  45.8413614  95.8653796  12.0616563
  47.0191923  96.4917178  12.7774032  38.6122979 102.7080105  26.0065062
  39.4754441 102.3516910  26.2168386  38.0388390 102.3694000  26.6940466
  16.1571560  46.0019939  12.2698738  16.7011464  46.6149897  11.7753693
  15.5758404  46.5599517  12.7865751  19.4800354  45.4615993  11.6060060
  18.6895898  45.4440132  11.0664559  19.2433709  46.0004286  12.3609096
  21.1016426  44.7305401   9.1634810  20.8101234  45.0935381   9.9998271
  20.4888557  44.0172409   8.9848142  14.2797618  43.6479705  14.1327495
  15.1488778  43.8220358  13.7714130  13.8004370  44.4674122  14.0103224
  25.9390094  55.3568331   3.5372770  26.5768504  55.2375079   2.8336110
  25.8210937  56.3049175   3.5960722  22.7479800  55.3095759   3.4734294
  22.4098312  55.1936824   2.5854829  23.6169568  54.9086925   3.4535300
  23.2299583  56.4630611   9.4320500  23.2188224  56.0683409   8.5601003
  23.3920223  55.7296684  10.0254271  19.9506844  59.2467723   8.3799684
  19.6596710  60.1513354   8.2646350  20.5863829  59.2884251   9.0943753
  20.8763051  56.6244572   4.9701043  21.4726623  56.4000594   4.2558006
  20.9338023  55.8829317   5.5726491  30.8939790  53.0195018   1.5158956
  31.6264962  52.4494235   1.7496786  30.1379145  52.6316619   1.9565462
  28.4165210  46.7316593   5.9753565  28.0848535  47.6012003   5.7514780
  27.8210823  46.4152877   6.6547595  24.9096729  58.9329139   5.3749477
  24.6097453  59.8354177   5.2665285  24.5647789  58.6661322   6.2270630
  28.3093873  51.4511679   3.0546915  27.4010751  51.3827087   2.7605676
  28.2581469  51.9283624   3.8828740  22.3834739  52.8701324  10.9981812
  21.6068073  53.4295244  10.9884677  23.0225302  53.3558107  11.5196682
  30.1755520  49.6528117   4.8324789  29.5329900  49.9460650   4.1864583
  29.6710448  49.5381037   5.6377985  20.6381111  55.6786778  10.5599779
  21.3795796  56.2171822  10.2834603  19.9318097  56.3053066  10.7171331
  26.1136451  57.8215918   9.1571941  26.5219807  57.3798329   8.4126573
  25.3913712  57.2468546   9.4106133  22.4667521  52.7588525   6.5305497
  23.3128716  53.1827938   6.6740146  22.4066159  52.1022149   7.2244061
  26.4365266  58.3817109   2.9124229  25.8074128  58.5462823   2.2100297
  26.0490928  58.7958718   3.6835193  30.3154498  59.3171547   0.2668593
  29.6305536  59.6970448  -0.2834374  30.3998347  59.9266873   1.0000541
  25.6166966  50.4192893   8.1886671  25.3727898  51.1734954   7.6520947
  25.8926897  50.7978241   9.0233918  27.5705429  56.9631506   6.8663937
  27.7822324  57.6063266   6.1898318  27.5235177  56.1293822   6.3985867
  18.8817309  57.6662998   3.1154078  19.4518666  58.0950267   2.4771562
  19.4725420  57.3845583   3.8138263  19.3742475  52.8326426  11.3615089
  18.7441136  53.5142707  11.5950486  19.2678563  52.7209507  10.4168227
  28.6851257  59.8403461   5.0386294  29.5068701  59.4383648   4.7568976
  28.6813660  59.7371695   5.9902410  22.4507861  59.3887504   7.1947005
  22.5152293  59.8507912   8.0305176  21.7418784  58.7584869   7.3229314
  36.7757250  56.1842210   1.3871266  36.0220959  55.6149608   1.2315270
  36.9104791  56.1504874   2.3341900  18.6523218  47.1347192  13.7240340
  18.2590163  46.5813390  14.3987984  19.4689358  47.4457770  14.1146858
  21.5691179  48.5505071  11.3160597  22.3100892  49.1512224  11.2365059
  21.8009102  47.8082709  10.7578639  16.7132517  53.7361438   9.5938826
  16.5986032  52.8346695   9.8945925  15.8577035  53.9825135   9.2423643
  23.7924355  61.6779178  11.1926327  23.3488209  60.8915557  10.8747231
  24.4541568  61.8658329  10.5270218  18.5511476  63.2074980   5.7187005
  19.1018901  63.0792043   4.9463999  17.7122952  63.5069869   5.3681898
  25.8905593  61.9581978   9.2207728  25.8724068  62.7790859   8.7287997
  26.8125513  61.8336053   9.4457869  22.3478647  59.4726108  10.0631237
  22.8806984  58.7114396   9.8330545  21.8192728  59.1799760  10.8055391
  28.6924206  56.7961121   2.6917095  28.0347880  57.4860382   2.7797224
  29.4964605  57.1857553   3.0351081  27.5029664  55.1505493   0.7421037
  28.0161546  55.7835485   1.2442746  28.1530888  54.5506689   0.3764397
  28.2691461  60.1311495  -1.1299821  27.8153788  59.2902405  -1.0734630
  27.6385427  60.7672893  -0.7925041  26.7124400  61.9687992  -0.1950003
  27.0047374  62.5293049  -0.9137637  27.2223020  62.2616553   0.5603157
  21.6758025  62.7468343   0.8943451  21.6334204  62.9729189  -0.0348017
  22.5920724  62.5131717   1.0429252  25.1223659  53.2152410   7.7924080
  25.4773046  53.4423883   8.6518546  25.7695790  53.5470787   7.1701335
  30.8521396  56.3370846  -1.5026591  30.7139294  56.5272442  -2.4305402
  30.4957615  57.0990229  -1.0458540  30.8790775  58.4047373   3.5084680
  31.3127282  58.3122662   4.3567734  31.5922356  58.3804874   2.8704696
  24.6118670  62.0049467   5.0417781  24.6655692  62.5740403   5.8095497
  23.7433452  62.1751352   4.6771818  17.4917064  51.7067023   6.5242232
  18.1640117  51.4984386   5.8754881  16.6646850  51.5089109   6.0847465
  31.7406325  58.4471074   6.0417566  31.9342215  59.3516884   6.2876841
  31.6406943  57.9878493   6.8756151  23.3942636  48.3328964   8.5407893
  22.7470551  49.0318914   8.4472370  24.1643651  48.7665108   8.9084141
  26.8021434  58.5977816  11.6158446  26.6506940  58.3688368  10.6988530
  26.7926113  59.5548418  11.6289791  23.5706770  56.1709729   6.6004713
  24.4998830  56.3220889   6.4273680  23.1497800  56.2593750   5.7453359
  22.3695102  60.1960394   4.3703250  22.2306187  59.8279178   5.2429189
  21.5809698  60.7108033   4.1987208  23.9200317  59.5741996   1.7592088
  23.5850149  59.5342766   2.6549738  23.4204263  58.9086712   1.2862498
  17.8944561  54.9809626   7.2844669  17.7564359  54.2489865   7.8856208
  18.8049484  54.8918526   7.0028857  20.5226862  54.6929586   6.7728349
  21.2326480  54.0522778   6.7314967  20.4796170  54.9442481   7.6954530
  28.5113640  61.6296939   9.6934928  28.4526186  60.9456159   9.0265511
  28.9133159  62.3715929   9.2415554  19.2355795  51.6794804   8.5923989
  18.6993153  51.2285542   9.2445585  18.6472504  51.8140712   7.8494453
  28.5131047  59.5936523   7.9248908  27.6257826  59.2562445   8.0475307
  29.0829599  58.8619554   8.1617673  22.0432201  64.2537975   4.8910151
  21.9702372  65.0592947   5.4029456  21.6009594  64.4529941   4.0658173
  32.9948388  55.0044740   2.6865470  32.9838264  55.8869456   2.3159403
  32.1265767  54.6516291   2.4920007  24.5030884  64.1524809   7.0468310
  25.2158857  64.7872274   6.9744211  24.0120913  64.2488675   6.2308312
  19.5542798  61.9019253   7.8673881  20.2552257  62.5355736   8.0203275
  19.0837913  62.2433984   7.1069520  27.3544084  54.4563860   5.6926431
  26.7015534  54.7039768   5.0378884  27.7324464  53.6427998   5.3588908
  24.3151258  64.4923553  -0.2045399  24.4973652  63.6745209   0.2582354
  25.1384244  64.7091246  -0.6420509  24.6493423  63.4191739  -2.9430350
  25.1781190  62.9084193  -3.5560188  24.9121643  63.1034269  -2.0784817
  23.4031657  55.1983671  12.1792468  22.7272294  55.0977801  12.8494843
  24.2259291  55.0422885  12.6428465  15.1510516  61.4355608   4.8004983
  15.7363953  60.6899296   4.9332887  14.9535354  61.7459565   5.6841647
  22.1454440  66.5050599   6.4150084  22.6972748  66.6682220   7.1799169
  22.4860633  67.0955037   5.7430109  16.5971206  50.9248881  10.6645003
  17.2243244  50.5425958  11.2782527  15.7399124  50.7063083  11.0300695
  26.9965314  61.3311856  12.2698738  27.5405218  61.9441815  11.7753693
  26.4152159  61.8891435  12.7865751  25.2822827  64.4532574   3.4013766
  25.1573967  63.6522314   2.8924712  25.9401918  64.9478768   2.9127736
  27.3457735  62.2541594   5.0293316  26.3988071  62.1346946   4.9571643
  27.6940509  61.3664092   5.1119578  19.7057309  48.1435733   8.8531558
  20.2291711  48.3898030   9.6157867  19.4869642  48.9755768   8.4334696
  24.3504169  62.0494311   1.2297669  24.2029131  61.1211018   1.4105239
  25.1757662  62.0714401   0.7454744  27.9538291  62.8722869   2.3162541
  28.8784838  62.6665731   2.1786992  27.7853594  62.6239270   3.2251883
  20.9109854  49.0849428   6.5381229  20.5706674  48.2857241   6.9401909
  20.2048860  49.3851139   5.9658062  22.7987418  50.2857750   4.8934547
  22.5405196  51.2074820   4.8918878  22.2672458  49.8888184   5.5835011
  27.7433607  63.3908537  -2.3275367  27.9170484  62.8254959  -3.0801515
  28.2362498  64.1909432  -2.5095877  13.5610567  55.4023206   5.7388192
  13.0164035  56.1783014   5.8708466  14.4389916  55.7494010   5.5807313
  33.5972998  56.1544960  -0.7085068  34.0404144  55.4052285  -1.1065944
  32.7199508  56.1455096  -1.0911336  28.7308779  62.7075301  -5.2278469
  29.4259684  63.3281994  -5.0091154  29.0731929  61.8570652  -4.9526091
  14.3476588  54.5293102   8.6318348  13.6058324  54.6775737   9.2182979
  14.0269333  54.7901368   7.7685098  30.6300202  60.1575007  -3.6991138
  31.1551526  60.4962279  -4.4241818  30.5422555  59.2222022  -3.8828004
  22.2920251  64.0709080   8.4298738  22.6007378  63.8258227   9.3021438
  23.0895733  64.2755719   7.9417609  22.3140863  66.2246990   0.6604115
  21.8745853  65.7323369   1.3536972  23.0648980  65.6819958   0.4196190
  19.7614735  61.7684999   2.7326417  19.1394745  61.1055704   2.4328644
  20.4319602  61.7946131   2.0500064  19.8339263  50.2466787  12.3258923
  19.8827418  51.1228910  11.9436692  20.3761777  49.7044180  11.7530566
  30.3194108  60.7907910  11.6060060  29.5289652  60.7732049  11.0664559
  30.0827463  61.3296204  12.3609096  30.4391984  57.6400377   8.9192788
  30.4889988  57.4750384   9.8608311  30.3305907  56.7727636   8.5290669
  27.7295746  53.6231305  10.2352095  28.6305609  53.4837770   9.9436093
  27.8043720  53.7885760  11.1750272  22.0638551  50.9998159   9.0805281
  21.1941861  51.2931726   8.8087870  22.2998032  51.5838604   9.8012545
  31.9410180  60.0597318   9.1634810  31.6494989  60.4227299   9.9998271
  31.3282312  59.3464327   8.9848142  33.1405863  57.6250198   1.6837380
  33.9752754  58.0640002   1.8474940  33.2764991  57.1488851   0.8645626
  30.1897369  55.1829933   7.6314868  30.6651490  55.3757579   6.8233719
  29.2662934  55.2389119   7.3858251  24.7677585  47.2177776   6.5970702
  25.2859529  47.9538803   6.2717190  24.4132718  47.5241770   7.4317461
  28.8899038  52.0595693   5.8643173  29.8416460  52.1593791   5.8855397
  28.7202488  51.2673961   6.3741258  26.9113417  49.1451276   6.0502574
  26.3163349  49.4256289   5.3549063  26.6263114  49.6345177   6.8219315
  31.3687115  55.2801813   4.9785473  31.3363435  54.3417813   5.1645157
  31.9787739  55.3585849   4.2451298  31.5181604  52.0712856   5.0243756
  31.0020653  51.2871313   4.8373685  32.4021552  51.7431573   5.1890276
  37.1863665  56.3417819   4.1191510  37.9167054  56.0803108   4.6799213
  36.5770611  55.6046541   4.1593578  35.2678962  54.4825682   4.7165961
  34.5412126  54.3481647   4.1082453  34.8526249  54.7902511   5.5222679
  23.0909139  58.2015612  12.4813334  24.0112148  58.3794211  12.6753381
  23.0558722  57.2571657  12.3293033  16.0871211  56.1116646   5.1236115
  16.3057221  57.0433754   5.1424149  16.4996985  55.7524621   5.9090919
  20.9599077  51.6849852  14.5138864  20.8595804  52.6344209  14.4450955
  20.7420619  51.3568091  13.6414934  20.8230347  55.1146991  13.3303926
  20.3397428  55.9147351  13.5367815  20.9091286  55.1254936  12.3771370
  16.7503684  59.0051526   5.3672360  17.7046938  58.9735468   5.3002291
  16.5516208  58.5442149   6.1822585  17.3403066  57.5752642   7.9343157
  18.1595955  58.0696720   7.9577995  17.6139874  56.6584610   7.9060725
  32.8856757  50.7037534   2.0699393  33.4801248  50.4633270   1.3592701
  32.9583341  49.9844665   2.6972929  35.1927830  54.0103735   0.8442814
  34.6327388  54.0796924   1.6174376  34.5871333  53.8344720   0.1242310
  18.2623039  65.4440462   2.5961000  18.1455423  66.3885895   2.4939690
  17.4415485  65.1414024   2.9846799  12.5937981  51.9090776   8.6335354
  13.2396844  51.3989730   9.1222579  12.3855132  52.6459457   9.2078780
  25.1191373  58.9771623  14.1327495  25.9882532  59.1512275  13.7714130
  24.6398124  59.7966040  14.0103224  19.2877553  66.0968724   5.8116929
  20.1904800  66.1292334   6.1283423  19.0614923  65.1669175   5.8263264
  21.0431155  64.8499711   2.4727007  20.0926786  64.8501572   2.3591379
  21.3463641  64.1032445   1.9563042  16.9335472  49.0558393  12.7310369
  17.7966933  48.6995198  12.9413693  16.3600882  48.7172288  13.4185773
  36.7783848  70.6860249   3.5372770  37.4162258  70.5666996   2.8336110
  36.6604691  71.6341093   3.5960722  33.5873555  70.6387677   3.4734294
  33.2492066  70.5228742   2.5854829  34.4563323  70.2378842   3.4535300
  29.4460370  72.4923154  -0.5368815  28.8825236  72.4013090  -1.3052527
  29.3312765  71.6723058  -0.0566322  34.0693338  71.7922529   9.4320500
  34.0581979  71.3975327   8.5601003  34.2313977  71.0588601  10.0254271
  26.9924802  73.9874345   2.3015406  27.7846094  73.6465170   1.8861705
  27.2321453  74.0969320   3.2217559  30.7900599  74.5759641   8.3799684
  30.4990465  75.4805272   8.2646350  31.4257583  74.6176168   9.0943753
  31.7156806  71.9536489   4.9701043  32.3120378  71.7292512   4.2558006
  31.7731777  71.2121235   5.5726491  36.3325117  68.4111703   0.6125978
  37.1188206  67.9931126   0.2616395  36.5963821  69.3157795   0.7807626
  36.5035194  73.8484553  -4.6885366  35.8681027  73.9219180  -3.9764461
  36.1732601  74.4378152  -5.3666286  41.7333544  68.3486936   1.5158956
  42.4658716  67.7786153   1.7496786  40.9772900  67.9608537   1.9565462
  33.3509664  70.7714178  -1.2877701  32.9867871  70.2444799  -0.5764780
  34.2076780  70.3812647  -1.4611216  39.2558964  62.0608510   5.9753565
  38.9242289  62.9303921   5.7514780  38.6604578  61.7444794   6.6547595
  32.9915151  65.8004077  -6.2916353  33.1589553  66.6684314  -5.9245882
  32.8012320  65.9631359  -7.2155064  35.7490484  74.2621056   5.3749477
  35.4491207  75.1646095   5.2665285  35.4041543  73.9953239   6.2270630
  29.2002965  70.7134853   1.4086182  28.2753462  70.5811067   1.6163874
  29.4487379  71.4929072   1.9056124  39.1487628  66.7803596   3.0546915
  38.2404505  66.7119005   2.7605676  39.0975224  67.2575541   3.8828740
  32.9704372  68.2561735  -5.3069686  32.8503997  68.7018786  -4.4684206
  32.2756960  68.6047052  -5.8656148  26.5611776  70.3568127   2.2429971
  26.6904158  70.6102606   3.1569383  25.8809228  70.9495835   1.9234626
  33.2228494  68.1993242  10.9981812  32.4461828  68.7587162  10.9884677
  33.8619057  68.6850025  11.5196682  41.0149274  64.9820035   4.8324789
  40.3723654  65.2752568   4.1864583  40.5104203  64.8672955   5.6377985
  38.6689438  68.7283208  -4.4789352  39.5807294  68.9610595  -4.6541655
  38.1599085  69.3120252  -5.0414273  31.4774866  71.0078695  10.5599779
  32.2189550  71.5463739  10.2834603  30.7711851  71.6344984  10.7171331
  36.9530205  73.1507836   9.1571941  37.3613562  72.7090246   8.4126573
  36.2307467  72.5760463   9.4106133  33.3061276  68.0880443   6.5305497
  34.1522471  68.5119856   6.6740146  33.2459913  67.4314067   7.2244061
  37.2759020  73.7109026   2.9124229  36.6467883  73.8754741   2.2100297
  36.8884682  74.1250636   3.6835193  41.1548252  74.6463464   0.2668593
  40.4699290  75.0262366  -0.2834374  41.2392101  75.2558791   1.0000541
  36.4560721  65.7484811   8.1886671  36.2121653  66.5026871   7.6520947
  36.7320651  66.1270159   9.0233918  38.4099184  72.2923423   6.8663937
  38.6216079  72.9355183   6.1898318  38.3628932  71.4585740   6.3985867
  36.0125413  64.9041244   3.7700509  35.1509892  65.2022498   4.0617246
  36.0387847  65.1211643   2.8381541  32.8286982  73.4483435   0.1774315
  33.2925328  73.7271137  -0.6121063  32.5643780  72.5466879  -0.0052595
  29.7211063  72.9954916   3.1154078  30.2912420  73.4242184   2.4771562
  30.3119175  72.7137501   3.8138263  31.7655868  69.5706587  -3.0136120
  32.4679911  70.0227631  -2.5462194  31.4336497  68.9290406  -2.3856227
  30.2136230  68.1618343  11.3615089  29.5834890  68.8434624  11.5950486
  30.1072317  68.0501425  10.4168227  25.5081202  67.8290140   2.2881013
  24.7180256  68.0847668   1.8121124  25.9992449  68.6438477   2.3933054
  39.5245012  75.1695379   5.0386294  40.3462455  74.7675566   4.7568976
  39.5207414  75.0663613   5.9902410  27.4595947  68.1934719  -0.7535510
  26.6627111  68.3053413  -0.2352014  27.2321540  68.5321371  -1.6194620
  33.2901615  74.7179422   7.1947005  33.3546048  75.1799829   8.0305176
  32.5812539  74.0876787   7.3229314  23.7918905  68.0820630   4.7196004
  24.0426943  68.9667640   4.9853580  24.3278453  67.9025232   3.9471096
  47.6151005  71.5134127   1.3871266  46.8614713  70.9441525   1.2315270
  47.7498546  71.4796792   2.3341900  33.0049633  76.3847529  -2.9374015
  32.8695307  77.2299065  -2.5089167  33.5459445  76.5866807  -3.7008081
  29.4916972  62.4639109  13.7240340  29.0983918  61.9105308  14.3987984
  30.3083113  62.7749688  14.1146858  32.4084933  63.8796988  11.3160597
  33.1494647  64.4804142  11.2365059  32.6402856  63.1374626  10.7578639
  27.5526271  69.0653356   9.5938826  27.4379786  68.1638613   9.8945925
  26.6970789  69.3117052   9.2423643  34.6318109  77.0071096  11.1926327
  34.1881963  76.2207475  10.8747231  35.2935323  77.1950247  10.5270218
  29.3905230  78.5366898   5.7187005  29.9412655  78.4083961   4.9463999
  28.5516706  78.8361787   5.3681898  36.7299347  77.2873896   9.2207728
  36.7117822  78.1082777   8.7287997  37.6519267  77.1627971   9.4457869
  33.1872401  74.8018025  10.0631237  33.7200738  74.0406314   9.8330545
  32.6586482  74.5091677  10.8055391  36.3542096  59.9078091   5.5924878
  36.0106366  60.7979733   5.5163989  36.7221059  59.7179749   4.7294463
  36.3192379  69.8986702  -5.9002687  35.8039002  70.6691307  -5.6614299
  36.0469687  69.2251839  -5.2769625  33.9039490  64.7436403  -0.8417448
  33.0481086  64.3543254  -1.0211809  34.3166442  64.8228364  -1.7017663
  35.4338637  62.2782747   3.5574112  34.9303432  62.2412882   2.7441917
  35.7269244  63.1875489   3.6170768  31.6781523  62.3621476   2.5640293
  32.5434519  62.1664285   2.2046183  31.7459031  62.1331828   3.4909650
  41.2926653  72.6519057  -3.9649513  40.5156096  72.3130217  -4.4094351
  41.9718134  72.6571680  -4.6394548  36.1078682  67.7713795  -4.0742905
  35.8028818  68.0859944  -3.2232762  37.0609124  67.8495214  -4.0315572
  34.5525114  73.9304018  -2.4249951  34.0246476  73.1956777  -2.7376714
  34.0512617  74.7078694  -2.6709983  39.5317960  72.1253038   2.6917095
  38.8741634  72.8152300   2.7797224  40.3358359  72.5149470   3.0351081
  29.2843842  64.5923684  -0.0643340  29.8587594  64.3698866  -0.7970147
  29.8714824  64.6612379   0.6885261  38.3423419  70.4797411   0.7421037
  38.8555301  71.1127403   1.2442746  38.9924643  69.8798607   0.3764397
  31.5866509  61.4664933  -1.3368270  30.9330922  61.1513950  -1.9611656
  31.5446983  60.8440674  -0.6108448  34.8204250  67.9546867   2.9879377
  33.9026811  68.1761814   2.8301065  35.2364393  68.0293177   2.1291085
  35.6039297  69.3538282  -1.8817943  36.3511116  69.8659680  -2.1910821
  35.8730887  69.0322335  -1.0213549  33.8765948  71.8496823  -4.8990988
  32.9677167  71.5655856  -4.8018519  33.9061031  72.2695902  -5.7587681
  39.1085215  75.4603413  -1.1299821  38.6547542  74.6194322  -1.0734630
  38.4779182  76.0964811  -0.7925041  38.0518135  66.3895399   0.1000847
  37.3140891  65.8772785   0.4311089  38.3044908  65.9495780  -0.7115876
  37.5518154  77.2979909  -0.1950003  37.8441129  77.8584966  -0.9137637
  38.0616775  77.5908470   0.5603157  38.1529762  59.1671651   0.6942616
  38.4588639  58.3069014   0.4068531  38.8782367  59.7589271   0.4941610
  32.4250842  69.4625444   1.2018807  32.4799451  68.5099280   1.1261284
  31.6142044  69.6184883   1.6860105  30.3643202  68.0802503  -1.0390814
  29.5511067  68.3796674  -0.6325622  30.8602196  67.6858192  -0.3216332
  32.5151779  78.0760260   0.8943451  32.4727958  78.3021107  -0.0348017
  33.4314478  77.8423635   1.0429252  35.9617413  68.5444328   7.7924080
  36.3166801  68.7715801   8.6518546  36.6089544  68.8762705   7.1701335
  41.6915150  71.6662764  -1.5026591  41.5533049  71.8564360  -2.4305402
  41.3351369  72.4282147  -1.0458540  29.8557276  65.6520859   4.5770421
  30.4956656  65.5109618   3.8793384  29.0234807  65.3655372   4.2009023
  41.7184530  73.7339291   3.5084680  42.1521036  73.6414580   4.3567734
  42.4316111  73.7096791   2.8704696  30.6317580  74.9523289   0.6905413
  31.4258179  74.4573609   0.4887988  29.9209273  74.4241152   0.3273119
  35.4512425  77.3341385   5.0417781  35.5049447  77.9032321   5.8095497
  34.5827206  77.5043270   4.6771818  26.8585893  65.6221184  -0.6456592
  27.1192710  66.5366517  -0.7547432  27.6803065  65.1545626  -0.4959979
  28.3310818  67.0358941   6.5242232  29.0033872  66.8276303   5.8754881
  27.5040605  66.8381027   6.0847465  42.5800079  73.7762991   6.0417566
  42.7735969  74.6808802   6.2876841  42.4800698  73.3170410   6.8756151
  34.2336390  63.6620882   8.5407893  33.5864305  64.3610832   8.4472370
  35.0037405  64.0957026   8.9084141  37.6415188  73.9269734  11.6158446
  37.4900694  73.6980286  10.6988530  37.6319868  74.8840336  11.6289791
  34.4100524  71.5001647   6.6004713  35.3392584  71.6512806   6.4273680
  33.9891554  71.5885668   5.7453359  33.2088856  75.5252311   4.3703250
  33.0699942  75.1571096   5.2429189  32.4203452  76.0399951   4.1987208
  34.7594071  74.9033914   1.7592088  34.4243904  74.8634684   2.6549738
  34.2598017  74.2378630   1.2862498  28.7338315  70.3101544   7.2844669
  28.5958113  69.5781783   7.8856208  29.6443239  70.2210444   7.0028857
  37.6953263  72.2489948  -7.9670852  37.0782434  71.5236777  -8.0637799
  37.2269751  73.0099309  -8.3103778  31.3620616  70.0221503   6.7728349
  32.0720235  69.3814696   6.7314967  31.3189924  70.2734398   7.6954530
  39.3507395  76.9588857   9.6934928  39.2919941  76.2748077   9.0265511
  39.7526913  77.7007847   9.2415554  30.0749550  67.0086721   8.5923989
  29.5386907  66.5577460   9.2445585  29.4866258  67.1432630   7.8494453
  39.3524802  74.9228441   7.9248908  38.4651581  74.5854362   8.0475307
  39.9223353  74.1911472   8.1617673  25.8088671  66.1442729   5.6776983
  25.7246860  65.5368398   4.9427393  24.9871378  66.6351747   5.6786479
  32.8825955  79.5829893   4.8910151  32.8096127  80.3884864   5.4029456
  32.4403348  79.7821859   4.0658173  35.9812385  64.6296292   1.0447178
  36.4781085  63.8766255   0.7248248  35.2099367  64.6660609   0.4790387
  43.8342142  70.3336658   2.6865470  43.8232019  71.2161373   2.3159403
  42.9659522  69.9808209   2.4920007  35.3424639  79.4816727   7.0468310
  36.0552611  80.1164192   6.9744211  34.8514668  79.5780593   6.2308312
  37.0642166  73.3867980  -1.3814399  36.1298445  73.5069442  -1.5509694
  37.2418834  72.4840446  -1.6454389  32.5647354  66.7713675   0.7718863
  32.1945141  66.2184716   1.4599768  33.0606446  66.1671809   0.2193863
  40.4514717  69.2285299  -0.8464364  40.9175169  70.0613291  -0.9204062
  40.9022218  68.7630281  -0.1419106  30.3936552  77.2311170   7.8673881
  31.0946012  77.8647653   8.0203275  29.9231667  77.5725902   7.1069520
  38.5190948  75.5729120  -3.8478212  38.7950792  75.4585715  -2.9384338
  37.6495447  75.1746605  -3.8866039  38.4231380  61.5965886   3.1926537
  37.5094460  61.8270113   3.3608744  38.8524481  61.6804330   4.0440569
  38.1937838  69.7855778   5.6926431  37.5409289  70.0331685   5.0378884
  38.5718218  68.9719916   5.3588908  35.1545012  79.8215471  -0.2045399
  35.3367407  79.0037127   0.2582354  35.9777998  80.0383163  -0.6420509
  35.4887178  78.7483656  -2.9430350  36.0174944  78.2376111  -3.5560188
  35.7515397  78.4326186  -2.0784817  34.2425411  70.5275589  12.1792468
  33.5666048  70.4269718  12.8494843  35.0653045  70.3714803  12.6428465
  25.9904270  76.7647526   4.8004983  26.5757707  76.0191213   4.9332887
  25.7929109  77.0751482   5.6841647  20.5821925  69.3353126   3.5209426
  20.6206025  68.8016716   4.3146545  20.0762218  68.8088331   2.9020404
  32.9848194  81.8342516   6.4150084  33.5366502  81.9974138   7.1799169
  33.3254388  82.4246954   5.7430109  27.9612687  64.1817666   7.0171969
  28.0254014  65.0432497   6.6049366  27.8979808  63.5691668   6.2844327
  27.4364960  66.2540799  10.6645003  28.0636999  65.8717876  11.2782527
  26.5792879  66.0355001  11.0300695  37.8359069  76.6603774  12.2698738
  38.3798973  77.2733732  11.7753693  37.2545913  77.2183352  12.7865751
  36.1216582  79.7824492   3.4013766  35.9967721  78.9814232   2.8924712
  36.7795673  80.2770685   2.9127736  27.7424750  66.1373224   2.5790906
  27.0211336  66.7509192   2.4398380  28.5318006  66.6730989   2.5007552
  38.1851490  77.5833512   5.0293316  37.2381825  77.4638863   4.9571643
  38.5334263  76.6956010   5.1119578  30.5451063  63.4727651   8.8531558
  31.0685465  63.7189947   9.6157867  30.3263397  64.3047686   8.4334696
  25.9418344  65.7431326  -3.2797317  25.6131051  64.8628704  -3.4622211
  26.2957715  65.6878994  -2.3920928  35.1897923  77.3786228   1.2297669
  35.0422886  76.4502936   1.4105239  36.0151417  77.4006319   0.7454744
  29.0560168  66.0304295  -2.9121839  29.3956240  66.5590217  -3.6343231
  29.5032288  66.3684701  -2.1363273  38.7932045  78.2014787   2.3162541
  39.7178593  77.9957648   2.1786992  38.6247348  77.9531188   3.2251883
  31.7503608  64.4141346   6.5381229  31.4100429  63.6149159   6.9401909
  31.0442615  64.7143057   5.9658062  32.4020080  61.4990658   4.9908552
  33.2246149  61.0251137   4.8687442  32.6458144  62.2781142   5.4907238
  31.0428315  64.5278917  -4.7128547  31.7636677  64.9060170  -5.2164830
  30.4193619  65.2467794  -4.6093569  35.1859438  65.2324066  -3.7770214
  35.4023052  66.1148704  -4.0781386  34.7053505  64.8410279  -4.5064572
  29.9258659  68.1909779   2.8000530  29.7803240  68.5050082   3.6924812
  29.4483863  68.8094679   2.2471429  31.7855042  65.1812327   2.8481420
  31.7716611  64.2853420   2.5113718  32.5027470  65.1882991   3.4819706
  33.6381173  65.6149667   4.8934547  33.3798950  66.5366738   4.8918878
  33.1066213  65.2180102   5.5835011  38.5827361  78.7200454  -2.3275367
  38.7564239  78.1546877  -3.0801515  39.0756253  79.5201349  -2.5095877
  24.4004321  70.7315124   5.7388192  23.8557789  71.5074931   5.8708466
  25.2783671  71.0785928   5.5807313  31.1891938  64.0626707  -1.8831010
  31.3107849  63.1343354  -1.6840122  30.8993980  64.0765393  -2.7952695
  34.0583128  61.7481618   1.2535710  34.0804825  61.8120951   0.2987689
  34.4751187  60.9086126   1.4476216  44.4366752  71.4836877  -0.7085068
  44.8797898  70.7344203  -1.1065944  43.5593263  71.4747014  -1.0911336
  25.1870343  69.8585020   8.6318348  24.4452079  70.0067655   9.2182979
  24.8663087  70.1193285   7.7685098  41.4693957  75.4866924  -3.6991138
  41.9945281  75.8254197  -4.4241818  41.3816309  74.5513940  -3.8828004
  33.1314006  79.4000998   8.4298738  33.4401132  79.1550145   9.3021438
  33.9289488  79.6047636   7.9417609  33.1534618  81.5538908   0.6604115
  32.7139608  81.0615286   1.3536972  33.9042735  81.0111875   0.4196190
  30.6008490  77.0976917   2.7326417  29.9788499  76.4347622   2.4328644
  31.2713357  77.1238049   2.0500064  30.6733017  65.5758705  12.3258923
  30.7221173  66.4520828  11.9436692  31.2155531  65.0336098  11.7530566
  41.1587863  76.1199828  11.6060060  40.3683407  76.1023967  11.0664559
  40.9221218  76.6588122  12.3609096  41.2785738  72.9692294   8.9192788
  41.3283743  72.8042302   9.8608311  41.1699661  72.1019553   8.5290669
  38.5689500  68.9523222  10.2352095  39.4699363  68.8129687   9.9436093
  38.6437475  69.1177677  11.1750272  32.9032306  66.3290077   9.0805281
  32.0335615  66.6223643   8.8087870  33.1391786  66.9130522   9.8012545
  42.7803935  75.3889236   9.1634810  42.4888743  75.7519216   9.9998271
  42.1676066  74.6756244   8.9848142  43.9799617  72.9542116   1.6837380
  44.8146509  73.3931920   1.8474940  44.1158746  72.4780769   0.8645626
  41.0291123  70.5121851   7.6314868  41.5045245  70.7049497   6.8233719
  40.1056688  70.5681036   7.3858251  35.6071340  62.5469694   6.5970702
  36.1253283  63.2830721   6.2717190  35.2526472  62.8533687   7.4317461
  35.8583934  58.9669977   2.1171598  36.1385688  58.2993166   2.7432025
  36.6434541  59.1599072   1.6046262  39.7292792  67.3887611   5.8643173
  40.6810215  67.4885708   5.8855397  39.5596242  66.5965879   6.3741258
  37.7507172  64.4743194   6.0502574  37.1557104  64.7548207   5.3549063
  37.4656868  64.9637095   6.8219315  42.2080870  70.6093730   4.9785473
  42.1757190  69.6709731   5.1645157  42.8181494  70.6877767   4.2451298
  42.3575358  67.4004774   5.0243756  41.8414407  66.6163230   4.8373685
  43.2415307  67.0723490   5.1890276  40.0186085  61.1445789   0.9839569
  39.8210906  60.8360877   1.8682901  40.6285791  61.8707428   1.1137499
  48.0257420  71.6709737   4.1191510  48.7560808  71.4095025   4.6799213
  47.4164365  70.9338459   4.1593578  46.1072717  69.8117600   4.7165961
  45.3805880  69.6773565   4.1082453  45.6920004  70.1194428   5.5222679
  33.9302893  73.5307529  12.4813334  34.8505903  73.7086128  12.6753381
  33.8952476  72.5863575  12.3293033  23.1485058  68.7246123   1.4066609
  22.8287843  67.8711431   1.1140983  22.6018486  68.9394701   2.1624576
  26.9264966  71.4408564   5.1236115  27.1450976  72.3725672   5.1424149
  27.3390740  71.0816538   5.9090919  33.8469184  61.9476649  -2.8888196
  33.0369912  61.6023734  -2.5132950  34.5353601  61.6384193  -2.3000585
  35.7759732  61.0254696  -1.2663900  36.3290771  61.4450150  -0.6073877
  36.0129818  60.0990444  -1.2240944  31.7992831  67.0141770  14.5138864
  31.6989558  67.9636127  14.4450955  31.5814373  66.6860009  13.6414934
  23.0173318  72.3449035   3.3759730  22.3236790  71.9302987   2.8629685
  23.7646309  72.3869571   2.7793149  39.1538539  63.1355221  -1.7585235
  38.5737208  63.7940025  -2.1407183  38.8874472  62.3132566  -2.1697818
  37.6042105  62.5360279   0.4436085  38.1041884  62.6476814  -0.3649596
  38.2477713  62.2321332   1.0836893  31.6624101  70.4438909  13.3303926
  31.1791183  71.2439269  13.5367815  31.7485040  70.4546854  12.3771370
  24.9310061  72.2767288   1.2525745  24.9080749  72.3754976   0.3007628
  25.2410697  73.1232439   1.5742911  27.5897439  74.3343443   5.3672360
  28.5440692  74.3027386   5.3002291  27.3909962  73.8734067   6.1822585
  28.1796821  72.9044559   7.9343157  28.9989710  73.3988638   7.9577995
  28.4533629  71.9876528   7.9060725  37.9363417  65.2955312  -2.7028887
  37.0489272  65.5804962  -2.9208692  38.3517406  65.1349075  -3.5501610
  41.2877953  65.3201833   1.0125452  42.0638343  65.8098285   1.2850069
  40.5626087  65.7459887   1.4697322  43.7250512  66.0329452   2.0699393
  44.3195003  65.7925188   1.3592701  43.7977095  65.3136582   2.6972929
  37.9104441  70.8109848  -2.4878597  37.8539642  71.2678399  -3.3270965
  38.4632783  70.0500532  -2.6655754  41.7209247  66.5999580  -1.6628478
  41.4646181  66.1996215  -0.8320270  41.0962115  67.3143373  -1.7878338
  46.0321585  69.3395653   0.8442814  45.4721142  69.4088842   1.6174376
  45.4265088  69.1636637   0.1242310  29.1016793  80.7732380   2.5961000
  28.9849177  81.7177812   2.4939690  28.2809240  80.4705941   2.9846799
  38.9893328  75.4982516  -6.5582407  39.8238932  75.0663714  -6.7404932
  38.8277671  75.3264529  -5.6305513  38.6439220  72.0014629  -5.1926068
  38.5888024  71.8358900  -6.1337624  38.0185275  72.7090662  -5.0363878
  23.4331735  67.2382693   8.6335354  24.0790599  66.7281647   9.1222579
  23.2248886  67.9751375   9.2078780  35.9585127  74.3063541  14.1327495
  36.8276287  74.4804193  13.7714130  35.4791879  75.1257958  14.0103224
  31.9535346  61.5022738  -5.6140749  31.9414015  62.4464578  -5.4572479
  32.8458767  61.3192883  -5.9081288  30.1271307  81.4260642   5.8116929
  31.0298554  81.4584252   6.1283423  29.9008678  80.4961093   5.8263264
  31.8824909  80.1791628   2.4727007  30.9320540  80.1793490   2.3591379
  32.1857396  79.4324363   1.9563042  35.7687465  58.0965515  -1.3594813
  35.0019861  57.5424001  -1.2138130  36.1798170  58.1687383  -0.4980661
  27.7729226  64.3850310  12.7310369  28.6360688  64.0287115  12.9413693
  27.1994637  64.0464205  13.4185773  47.6177603  86.0152167   3.5372770
  48.2556013  85.8958914   2.8336110  47.4998446  86.9633011   3.5960722
  44.4267309  85.9679595   3.4734294  44.0885821  85.8520660   2.5854829
  45.2957077  85.5670760   3.4535300  44.9087092  87.1214447   9.4320500
  44.8975733  86.7267245   8.5601003  45.0707732  86.3880519  10.0254271
  37.8318557  89.3166263   2.3015406  38.6239849  88.9757087   1.8861705
  38.0715207  89.4261238   3.2217559  41.6294353  89.9051558   8.3799684
  41.3384219  90.8097189   8.2646350  42.2651338  89.9468086   9.0943753
  42.5550560  87.2828407   4.9701043  43.1514132  87.0584429   4.2558006
  42.6125532  86.5413152   5.5726491  50.0952719  77.3900428   5.9753565
  49.7636044  78.2595839   5.7514780  49.4998332  77.0736712   6.6547595
  46.5884238  89.5912974   5.3749477  46.2884962  90.4938013   5.2665285
  46.2435298  89.3245157   6.2270630  40.0396720  86.0426771   1.4086182
  39.1147216  85.9102985   1.6163874  40.2881133  86.8220990   1.9056124
  49.9881382  82.1095514   3.0546915  49.0798260  82.0410922   2.7605676
  49.9368978  82.5867459   3.8828740  37.4005531  85.6860044   2.2429971
  37.5297912  85.9394523   3.1569383  36.7202982  86.2787752   1.9234626
  44.0622248  83.5285160  10.9981812  43.2855582  84.0879080  10.9884677
  44.7012811  84.0141943  11.5196682  51.8543029  80.3111952   4.8324789
  51.2117409  80.6044486   4.1864583  51.3497957  80.1964873   5.6377985
  42.3168620  86.3370613  10.5599779  43.0583305  86.8755657  10.2834603
  41.6105606  86.9636902  10.7171331  47.7923960  88.4799753   9.1571941
  48.2007316  88.0382164   8.4126573  47.0701221  87.9052381   9.4106133
  44.1455030  83.4172360   6.5305497  44.9916225  83.8411774   6.6740146
  44.0853668  82.7605985   7.2244061  47.2954475  81.0776729   8.1886671
  47.0515407  81.8318789   7.6520947  47.5714406  81.4562076   9.0233918
  49.2492938  87.6215341   6.8663937  49.4609833  88.2647101   6.1898318
  49.2022686  86.7877658   6.3985867  46.8519167  80.2333162   3.7700509
  45.9903646  80.5314415   4.0617246  46.8781602  80.4503561   2.8381541
  40.5604818  88.3246834   3.1154078  41.1306175  88.7534102   2.4771562
  41.1512929  88.0429418   3.8138263  41.0529984  83.4910261  11.3615089
  40.4228645  84.1726542  11.5950486  40.9466072  83.3793343  10.4168227
  36.3474957  83.1582057   2.2881013  35.5574010  83.4139586   1.8121124
  36.8386204  83.9730395   2.3933054  38.2989702  83.5226636  -0.7535510
  37.5020865  83.6345331  -0.2352014  38.0715294  83.8613289  -1.6194620
  44.1295370  90.0471340   7.1947005  44.1939802  90.5091747   8.0305176
  43.4206293  89.4168705   7.3229314  34.6312659  83.4112548   4.7196004
  34.8820698  84.2959558   4.9853580  35.1672208  83.2317149   3.9471096
  40.3310727  77.7931027  13.7240340  39.9377672  77.2397226  14.3987984
  41.1476867  78.1041605  14.1146858  43.2478688  79.2088906  11.3160597
  43.9888401  79.8096059  11.2365059  43.4796611  78.4666544  10.7578639
  38.3920026  84.3945273   9.5938826  38.2773541  83.4930531   9.8945925
  37.5364544  84.6408970   9.2423643  45.4711864  92.3363014  11.1926327
  45.0275718  91.5499392  10.8747231  46.1329077  92.5242164  10.5270218
  40.2298985  93.8658815   5.7187005  40.7806410  93.7375879   4.9463999
  39.3910461  94.1653704   5.3681898  47.5693102  92.6165814   9.2207728
  47.5511577  93.4374695   8.7287997  48.4913022  92.4919889   9.4457869
  44.0266156  90.1309943  10.0631237  44.5594493  89.3698231   9.8330545
  43.4980237  89.8383595  10.8055391  47.1935851  75.2370009   5.5924878
  46.8500120  76.1271651   5.5163989  47.5614813  75.0471667   4.7294463
  44.7433244  80.0728321  -0.8417448  43.8874841  79.6835171  -1.0211809
  45.1560196  80.1520282  -1.7017663  46.2732391  77.6074664   3.5574112
  45.7697187  77.5704799   2.7441917  46.5662998  78.5167407   3.6170768
  42.5175277  77.6913394   2.5640293  43.3828274  77.4956203   2.2046183
  42.5852786  77.4623746   3.4909650  40.1237596  79.9215602  -0.0643340
  40.6981348  79.6990783  -0.7970147  40.7108579  79.9904296   0.6885261
  42.4260264  76.7956851  -1.3368270  41.7724676  76.4805868  -1.9611656
  42.3840738  76.1732591  -0.6108448  45.6598004  83.2838784   2.9879377
  44.7420566  83.5053731   2.8301065  46.0758148  83.3585095   2.1291085
  48.9923516  74.4963568   0.6942616  49.2982393  73.6360932   0.4068531
  49.7176121  75.0881188   0.4941610  43.2644596  84.7917361   1.2018807
  43.3193206  83.8391198   1.1261284  42.4535798  84.9476800   1.6860105
  41.2036956  83.4094421  -1.0390814  40.3904822  83.7088592  -0.6325622
  41.6995950  83.0150110  -0.3216332  46.8011168  83.8736246   7.7924080
  47.1560555  84.1007719   8.6518546  47.4483299  84.2054622   7.1701335
  40.6951031  80.9812777   4.5770421  41.3350410  80.8401536   3.8793384
  39.8628561  80.6947290   4.2009023  37.6979647  80.9513102  -0.6456592
  37.9586465  81.8658435  -0.7547432  38.5196820  80.4837544  -0.4959979
  39.1704573  82.3650859   6.5242232  39.8427626  82.1568221   5.8754881
  38.3434359  82.1672945   6.0847465  45.0730145  78.9912800   8.5407893
  44.4258060  79.6902749   8.4472370  45.8431160  79.4248944   8.9084141
  48.4808943  89.2561652  11.6158446  48.3294449  89.0272204  10.6988530
  48.4713622  90.2132253  11.6289791  45.2494279  86.8293565   6.6004713
  46.1786339  86.9804724   6.4273680  44.8285309  86.9177585   5.7453359
  44.0482611  90.8544229   4.3703250  43.9093696  90.4863013   5.2429189
  43.2597207  91.3691868   4.1987208  39.5732070  85.6393462   7.2844669
  39.4351868  84.9073701   7.8856208  40.4836993  85.5502362   7.0028857
  42.2014370  85.3513421   6.7728349  42.9113989  84.7106613   6.7314967
  42.1583679  85.6026316   7.6954530  50.1901149  92.2880774   9.6934928
  50.1313695  91.6039994   9.0265511  50.5920668  93.0299764   9.2415554
  40.9143304  82.3378639   8.5923989  40.3780661  81.8869377   9.2445585
  40.3260013  82.4724548   7.8494453  50.1918556  90.2520358   7.9248908
  49.3045335  89.9146280   8.0475307  50.7617108  89.5203390   8.1617673
  36.6482426  81.4734647   5.6776983  36.5640614  80.8660316   4.9427393
  35.8265132  81.9643665   5.6786479  46.8206140  79.9588210   1.0447178
  47.3174839  79.2058172   0.7248248  46.0493121  79.9952527   0.4790387
  43.4041108  82.1005593   0.7718863  43.0338896  81.5476634   1.4599768
  43.9000201  81.4963727   0.2193863  41.2330307  92.5603088   7.8673881
  41.9339766  93.1939571   8.0203275  40.7625422  92.9017820   7.1069520
  49.2625134  76.9257804   3.1926537  48.3488214  77.1562030   3.3608744
  49.6918236  77.0096248   4.0440569  49.0331593  85.1147696   5.6926431
  48.3803043  85.3623603   5.0378884  49.4111973  84.3011834   5.3588908
  45.0819166  85.8567507  12.1792468  44.4059803  85.7561636  12.8494843
  45.9046800  85.7006720  12.6428465  36.8298025  92.0939443   4.8004983
  37.4151462  91.3483131   4.9332887  36.6322863  92.4043400   5.6841647
  31.4215680  84.6645043   3.5209426  31.4599779  84.1308634   4.3146545
  30.9155973  84.1380249   2.9020404  38.8006442  79.5109584   7.0171969
  38.8647768  80.3724415   6.6049366  38.7373562  78.8983586   6.2844327
  38.2758715  81.5832716  10.6645003  38.9030753  81.2009794  11.2782527
  37.4186633  81.3646918  11.0300695  48.6752823  91.9895692  12.2698738
  49.2192727  92.6025650  11.7753693  48.0939668  92.5475270  12.7865751
  38.5818504  81.4665142   2.5790906  37.8605090  82.0801110   2.4398380
  39.3711760  82.0022907   2.5007552  41.3844818  78.8019569   8.8531558
  41.9079220  79.0481865   9.6157867  41.1657151  79.6339603   8.4334696
  36.7812099  81.0723243  -3.2797317  36.4524805  80.1920622  -3.4622211
  37.1351470  81.0170912  -2.3920928  42.5897363  79.7433264   6.5381229
  42.2494183  78.9441077   6.9401909  41.8836369  80.0434975   5.9658062
  43.2413835  76.8282576   4.9908552  44.0639904  76.3543054   4.8687442
  43.4851898  77.6073060   5.4907238  40.7652413  83.5201697   2.8000530
  40.6196994  83.8342000   3.6924812  40.2877617  84.1386597   2.2471429
  42.6248796  80.5104245   2.8481420  42.6110365  79.6145338   2.5113718
  43.3421224  80.5174909   3.4819706  44.4774927  80.9441585   4.8934547
  44.2192705  81.8658656   4.8918878  43.9459967  80.5472020   5.5835011
  35.2398076  86.0607041   5.7388192  34.6951544  86.8366849   5.8708466
  36.1177425  86.4077846   5.5807313  42.0285692  79.3918625  -1.8831010
  42.1501603  78.4635271  -1.6840122  41.7387735  79.4057311  -2.7952695
  44.8976883  77.0773536   1.2535710  44.9198579  77.1412869   0.2987689
  45.3144942  76.2378044   1.4476216  36.0264097  85.1876937   8.6318348
  35.2845833  85.3359573   9.2182979  35.7056842  85.4485203   7.7685098
  43.9707760  94.7292916   8.4298738  44.2794887  94.4842062   9.3021438
  44.7683242  94.9339554   7.9417609  41.5126772  80.9050622  12.3258923
  41.5614927  81.7812745  11.9436692  42.0549286  80.3628015  11.7530566
  51.9981617  91.4491746  11.6060060  51.2077161  91.4315885  11.0664559
  51.7614972  91.9880039  12.3609096  52.1179492  88.2984212   8.9192788
  52.1677497  88.1334220   9.8608311  52.0093416  87.4311471   8.5290669
  49.4083255  84.2815140  10.2352095  50.3093118  84.1421605   9.9436093
  49.4831229  84.4469595  11.1750272  43.7426060  81.6581995   9.0805281
  42.8729370  81.9515561   8.8087870  43.9785541  82.2422440   9.8012545
  53.6197689  90.7181154   9.1634810  53.3282498  91.0811134   9.9998271
  53.0069821  90.0048162   8.9848142  51.8684878  85.8413768   7.6314868
  52.3438999  86.0341415   6.8233719  50.9450443  85.8972954   7.3858251
  46.4465094  77.8761612   6.5970702  46.9647038  78.6122639   6.2717190
  46.0920227  78.1825605   7.4317461  46.6977688  74.2961894   2.1171598
  46.9779442  73.6285083   2.7432025  47.4828295  74.4890990   1.6046262
  50.5686547  82.7179528   5.8643173  51.5203969  82.8177626   5.8855397
  50.3989997  81.9257797   6.3741258  48.5900926  79.8035112   6.0502574
  47.9950858  80.0840124   5.3549063  48.3050623  80.2929012   6.8219315
  53.1969113  82.7296691   5.0243756  52.6808161  81.9455148   4.8373685
  54.0809061  82.4015408   5.1890276  50.8579840  76.4737707   0.9839569
  50.6604661  76.1652795   1.8682901  51.4679545  77.1999346   1.1137499
  44.7696648  88.8599447  12.4813334  45.6899657  89.0378046  12.6753381
  44.7346231  87.9155492  12.3293033  33.9878813  84.0538041   1.4066609
  33.6681597  83.2003349   1.1140983  33.4412241  84.2686619   2.1624576
  37.7658720  86.7700482   5.1236115  37.9844730  87.7017590   5.1424149
  38.1784494  86.4108456   5.9090919  44.6862938  77.2768567  -2.8888196
  43.8763666  76.9315652  -2.5132950  45.3747355  76.9676111  -2.3000585
  46.6153486  76.3546614  -1.2663900  47.1684525  76.7742067  -0.6073877
  46.8523573  75.4282362  -1.2240944  42.6386586  82.3433688  14.5138864
  42.5383313  83.2928044  14.4450955  42.4208128  82.0151926  13.6414934
  33.8567073  87.6740952   3.3759730  33.1630544  87.2594905   2.8629685
  34.6040064  87.7161489   2.7793149  48.4435860  77.8652197   0.4436085
  48.9435638  77.9768731  -0.3649596  49.0871468  77.5613250   1.0836893
  42.5017856  85.7730826  13.3303926  42.0184937  86.5731186  13.5367815
  42.5878795  85.7838771  12.3771370  35.7703815  87.6059206   1.2525745
  35.7474503  87.7046893   0.3007628  36.0804452  88.4524357   1.5742911
  38.4291193  89.6635361   5.3672360  39.3834447  89.6319303   5.3002291
  38.2303717  89.2025985   6.1822585  39.0190575  88.2336477   7.9343157
  39.8383464  88.7280556   7.9577995  39.2927383  87.3168445   7.9060725
  34.2725490  82.5674611   8.6335354  34.9184353  82.0573565   9.1222579
  34.0642641  83.3043293   9.2078780  46.7978882  89.6355458  14.1327495
  47.6670041  89.8096111  13.7714130  46.3185633  90.4549875  14.0103224
  46.6081219  73.4257432  -1.3594813  45.8413615  72.8715919  -1.2138130
  47.0191924  73.4979301  -0.4980661  38.6122981  79.7142228  12.7310369
  39.4754442  79.3579033  12.9413693  38.0388391  79.3756123  13.4185773
  51.1704481  93.1222945  13.7240340  50.7771427  92.5689143  14.3987984
  51.9870622  93.4333523  14.1146858  54.0872442  94.5380824  11.3160597
  54.8282156  95.1387977  11.2365059  54.3190365  93.7958462  10.7578639
  49.1152469  96.9124634  10.6645003  49.7424508  96.5301711  11.2782527
  48.2580388  96.6938836  11.0300695  52.3520526  96.2342540  12.3258923
  52.4008682  97.1104663  11.9436692  52.8943040  95.6919933  11.7530566
  53.4780340  97.6725605  14.5138864  53.3777067  98.6219962  14.4450955
  53.2601882  97.3443844  13.6414934  45.1119244  97.8966529   8.6335354
  45.7578108  97.3865483   9.1222579  44.9036395  98.6335210   9.2078780
  49.4516735  95.0434146  12.7310369  50.3148197  94.6870951  12.9413693
  48.8782146  94.7048041  13.4185773  37.8359070  53.6665897  -1.0055955
  38.3798974  54.2795855  -1.5001000  37.2545915  54.2245475  -0.4888942
  41.1587864  53.1261951  -1.6694634  40.3683408  53.1086089  -2.2090134
  40.9221219  53.6650244  -0.9145597  42.7803936  52.3951358  -4.1119884
  42.4888744  52.7581339  -3.2756423  42.1676067  51.6818367  -4.2906551
  35.9585128  51.3125663   0.8572802  36.8276288  51.4866316   0.4959436
  35.4791880  52.1320080   0.7348531  47.6177604  63.0214289  -9.7381924
  48.2556014  62.9021037 -10.4418584  47.4998447  63.9695133  -9.6793972
  44.4267311  62.9741717  -9.8020399  44.0885822  62.8582782 -10.6899864
  45.2957079  62.5732883  -9.8219393  44.9087093  64.1276569  -3.8434194
  44.8975734  63.7329367  -4.7153690  45.0707733  63.3942642  -3.2500422
  41.6294355  66.9113681  -4.8955010  41.3384221  67.8159312  -5.0108343
  42.2651339  66.9530209  -4.1810940  42.5550561  64.2890529  -8.3053650
  43.1514134  64.0646552  -9.0196687  42.6125533  63.5475275  -7.7028202
  50.0952720  54.3962550  -7.3001129  49.7636045  55.2657961  -7.5239914
  49.4998334  54.0798834  -6.6207098  46.5884240  66.5975096  -7.9005216
  46.2884963  67.5000135  -8.0089409  46.2435299  66.3307280  -7.0484063
  49.9881384  59.1157637 -10.2207779  49.0798261  59.0473045 -10.5149018
  49.9368979  59.5929582  -9.3925953  44.0622249  60.5347282  -2.2772881
  43.2855583  61.0941202  -2.2870017  44.7012812  61.0204065  -1.7558011
  51.8543030  57.3174075  -8.4429905  51.2117410  57.6106608  -9.0890110
  51.3497958  57.2026995  -7.6376708  42.3168622  63.3432736  -2.7154914
  43.0583306  63.8817780  -2.9920091  41.6105607  63.9699024  -2.5583363
  47.7923961  65.4861876  -4.1182753  48.2007317  65.0444287  -4.8628120
  47.0701223  64.9114504  -3.8648560  44.1455031  60.4234483  -6.7449196
  44.9916226  60.8473896  -6.6014547  44.0853669  59.7668107  -6.0510633
  47.2954477  58.0838851  -5.0868022  47.0515408  58.8380912  -5.6233747
  47.5714407  58.4624199  -4.2520775  49.2492939  64.6277464  -6.4090757
  49.4609835  65.2709223  -7.0856376  49.2022688  63.7939780  -6.8768827
  40.5604819  65.3308956 -10.1600616  41.1306176  65.7596225 -10.7983131
  41.1512931  65.0491541  -9.4616430  41.0529985  60.4972384  -1.9139604
  40.4228646  61.1788665  -1.6804208  40.9466073  60.3855465  -2.8586466
  44.1295371  67.0533462  -6.0807689  44.1939803  67.5153870  -5.2449517
  43.4206295  66.4230827  -5.9525379  40.3310728  54.7993150   0.4485647
  39.9377674  54.2459348   1.1233291  41.1476868  55.1103728   0.8392164
  43.2478689  56.2151029  -1.9594097  43.9888402  56.8158182  -2.0389634
  43.4796612  55.4728666  -2.5176054  38.3920027  61.4007396  -3.6815867
  38.2773542  60.4992653  -3.3808768  37.5364545  61.6471093  -4.0331051
  45.4711865  69.3425136  -2.0828366  45.0275719  68.5561515  -2.4007462
  46.1329078  69.5304287  -2.7484476  40.2298986  70.8720938  -7.5567688
  40.7806411  70.7438001  -8.3290694  39.3910462  71.1715827  -7.9072795
  47.5693103  69.6227936  -4.0546965  47.5511578  70.4436817  -4.5466696
  48.4913023  69.4982011  -3.8296824  44.0266157  67.1372066  -3.2123457
  44.5594494  66.3760354  -3.4424149  43.4980238  66.8445717  -2.4699302
  46.8011169  60.8798368  -5.4830614  47.1560557  61.1069841  -4.6236148
  47.4483300  61.2116745  -6.1053358  39.1704574  59.3712981  -6.7512461
  39.8427627  59.1630343  -7.3999812  38.3434360  59.1735067  -7.1907229
  45.0730146  55.9974922  -4.7346800  44.4258061  56.6964872  -4.8282324
  45.8431161  56.4311066  -4.3670552  48.4808944  66.2623774  -1.6596247
  48.3294450  66.0334326  -2.5766163  48.4713623  67.2194376  -1.6464902
  45.2494280  63.8355687  -6.6749981  46.1786340  63.9866847  -6.8481013
  44.8285310  63.9239708  -7.5301334  44.0482612  67.8606352  -8.9051443
  43.9093698  67.4925136  -8.0325505  43.2597208  68.3753991  -9.0767485
  39.5732071  62.6455584  -5.9910024  39.4351869  61.9135823  -5.3898485
  40.4836995  62.5564484  -6.2725836  42.2014372  62.3575544  -6.5026344
  42.9113990  61.7168736  -6.5439726  42.1583680  62.6088438  -5.5800164
  50.1901150  69.2942897  -3.5819765  50.1313697  68.6102117  -4.2489182
  50.5920669  70.0361887  -4.0339139  40.9143306  59.3440762  -4.6830705
  40.3780663  58.8931500  -4.0309109  40.3260014  59.4786670  -5.4260241
  50.1918558  67.2582481  -5.3505785  49.3045336  66.9208403  -5.2279387
  50.7617109  66.5265512  -5.1137020  41.2330308  69.5665211  -5.4080813
  41.9339768  70.2001694  -5.2551419  40.7625423  69.9079942  -6.1685173
  49.0331594  62.1209818  -7.5828262  48.3803044  62.3685726  -8.2375810
  49.4111974  61.3073956  -7.9165785  45.0819167  62.8629629  -1.0962225
  44.4059804  62.7623759  -0.4259850  45.9046801  62.7068843  -0.6326228
  36.8298026  69.1001566  -8.4749710  37.4151463  68.3545254  -8.3421806
  36.6322865  69.4105523  -7.5913046  38.2758716  58.5894839  -2.6109690
  38.9030755  58.2071916  -1.9972166  37.4186635  58.3709041  -2.2453998
  48.6752824  68.9957814  -1.0055955  49.2192728  69.6087772  -1.5001000
  48.0939669  69.5537393  -0.4888942  41.3844819  55.8081691  -4.4223135
  41.9079221  56.0543988  -3.6596826  41.1657152  56.6401726  -4.8419998
  42.5897364  56.7495386  -6.7373465  42.2494184  55.9503199  -6.3352785
  41.8836370  57.0497097  -7.3096631  44.4774928  57.9503708  -8.3820146
  44.2192706  58.8720778  -8.3835816  43.9459969  57.5534142  -7.6919682
  35.2398077  63.0669164  -7.5366502  34.6951545  63.8428972  -7.4046228
  36.1177427  63.4139968  -7.6947380  36.0264099  62.1939060  -4.6436345
  35.2845835  62.3421695  -4.0571715  35.7056843  62.4547326  -5.5069596
  43.9707761  71.7355038  -4.8455955  44.2794888  71.4904185  -3.9733255
  44.7683243  71.9401677  -5.3337085  41.5126773  57.9112745  -0.9495771
  41.5614929  58.7874868  -1.3318001  42.0549287  57.3690138  -1.5224128
  51.9981619  68.4553868  -1.6694634  51.2077162  68.4378007  -2.2090134
  51.7614973  68.9942162  -0.9145597  52.1179494  65.3046335  -4.3561905
  52.1677499  65.1396342  -3.4146382  52.0093417  64.4373594  -4.7464024
  49.4083256  61.2877263  -3.0402598  50.3093119  61.1483728  -3.3318601
  49.4831231  61.4531718  -2.1004421  43.7426061  58.6644117  -4.1949412
  42.8729371  58.9577683  -4.4666824  43.9785542  59.2484562  -3.4742148
  53.6197691  67.7243276  -4.1119884  53.3282499  68.0873257  -3.2756423
  53.0069822  67.0110284  -4.2906551  51.8684879  62.8475891  -5.6439826
  52.3439000  63.0403537  -6.4520974  50.9450444  62.9035077  -5.8896442
  46.4465095  54.8823734  -6.6783992  46.9647039  55.6184761  -7.0037503
  46.0920228  55.1887728  -5.8437233  50.5686548  59.7241651  -7.4111520
  51.5203971  59.8239749  -7.3899296  50.3989998  58.9319919  -6.9013436
  48.5900927  56.8097234  -7.2252119  47.9950859  57.0902247  -7.9205630
  48.3050624  57.2991135  -6.4535378  53.1969114  59.7358814  -8.2510937
  52.6808163  58.9517271  -8.4381008  54.0809063  59.4077531  -8.0864418
  44.7696649  65.8661570  -0.7941359  45.6899658  66.0440169  -0.6001313
  44.7346232  64.9217615  -0.9461660  37.7658722  63.7762604  -8.1518578
  37.9844731  64.7079712  -8.1330544  38.1784495  63.4170579  -7.3663774
  42.6386587  59.3495810   1.2384171  42.5383314  60.2990167   1.1696262
  42.4208129  59.0214049   0.3660241  42.5017857  62.7792949   0.0549232
  42.0184939  63.5793309   0.2613121  42.5878796  62.7900894  -0.8983324
  38.4291194  66.6697484  -7.9082334  39.3834448  66.6381426  -7.9752402
  38.2303718  66.2088107  -7.0932108  39.0190577  65.2398600  -5.3411536
  39.8383466  65.7342678  -5.3176699  39.2927384  64.3230568  -5.3693969
  34.2725491  59.5736734  -4.6419339  34.9184354  59.0635688  -4.1532114
  34.0642642  60.3105415  -4.0675914  46.7978883  66.6417581   0.8572802
  47.6670043  66.8158233   0.4959436  46.3185634  67.4611998   0.7348531
  38.6122982  56.7204351  -0.5444325  39.4754443  56.3641155  -0.3341000
  38.0388392  56.3818245   0.1431079  51.1704483  70.1285067   0.4485647
  50.7771428  69.5751266   1.1233291  51.9870623  70.4395646   0.8392164
  54.0872444  71.5442946  -1.9594097  54.8282157  72.1450100  -2.0389634
  54.3190366  70.8020584  -2.5176054  49.1152470  73.9186757  -2.6109690
  49.7424509  73.5363834  -1.9972166  48.2580389  73.7000959  -2.2453998
  52.3520528  73.2404663  -0.9495771  52.4008683  74.1166786  -1.3318001
  52.8943042  72.6982056  -1.5224128  53.4780341  74.6787728   1.2384171
  53.3777068  75.6282085   1.1696262  53.2601883  74.3505967   0.3660241
  45.1119245  74.9028651  -4.6419339  45.7578109  74.3927605  -4.1532114
  44.9036396  75.6397333  -4.0675914  49.4516736  72.0496268  -0.5444325
  50.3148198  71.6933073  -0.3341000  48.8782147  71.7110163   0.1431079
 110.8459606 110.8459606 110.8459606 109.4712190 109.4712190 109.4712190
